<?xml version="1.0"?>
<VTKFile type="UnstructuredGrid"  version="0.1"  >
<UnstructuredGrid>
<Piece  NumberOfPoints="7595" NumberOfCells="14832">
<Points>
<DataArray  type="Float64"  NumberOfComponents="3"  format="ascii">0 222 0  0 223 0  1 223 0  1 224 0  0 224 0  2 223 0  2 224 0  3 223 0  3 224 0  4 224 0  41 223 0  42 223 0  42 224 0  41 224 0  43 223 0  43 224 0  44 223 0  44 224 0  45 223 0  45 224 0  46 223 0  46 224 0  47 223 0  47 224 0  48 224 0  50 223 0  51 223 0  51 224 0  50 224 0  52 223 0  52 224 0  53 224 0  1 225 0  0 225 0  2 225 0  3 225 0  4 225 0  5 225 0  29 224 0  30 224 0  30 225 0  29 225 0  31 224 0  31 225 0  32 224 0  32 225 0  33 225 0  42 225 0  41 225 0  43 225 0  44 225 0  45 225 0  46 225 0  47 225 0  48 225 0  49 224 0  49 225 0  50 225 0  51 225 0  52 225 0  53 225 0  54 224 0  54 225 0  55 224 0  55 225 0  56 225 0  1 226 0  0 226 0  2 226 0  3 226 0  4 226 0  5 226 0  6 226 0  12 225 0  13 225 0  13 226 0  12 226 0  14 225 0  14 226 0  15 226 0  26 225 0  27 225 0  27 226 0  26 226 0  28 225 0  28 226 0  29 226 0  30 226 0  31 226 0  32 226 0  33 226 0  34 225 0  34 226 0  35 225 0  35 226 0  36 225 0  36 226 0  37 225 0  37 226 0  38 226 0  40 225 0  41 226 0  40 226 0  42 226 0  43 226 0  44 226 0  45 226 0  46 226 0  47 226 0  48 226 0  49 226 0  50 226 0  51 226 0  52 226 0  53 226 0  54 226 0  55 226 0  56 226 0  57 225 0  57 226 0  58 225 0  58 226 0  59 225 0  59 226 0  60 225 0  60 226 0  61 225 0  61 226 0  62 225 0  62 226 0  63 225 0  63 226 0  64 225 0  64 226 0  65 225 0  65 226 0  66 226 0  1 227 0  0 227 0  2 227 0  3 227 0  4 227 0  5 227 0  6 227 0  7 226 0  7 227 0  8 226 0  8 227 0  9 226 0  9 227 0  10 226 0  10 227 0  11 226 0  11 227 0  12 227 0  13 227 0  14 227 0  15 227 0  16 226 0  16 227 0  17 226 0  17 227 0  18 226 0  18 227 0  19 226 0  19 227 0  20 226 0  20 227 0  21 226 0  21 227 0  22 226 0  22 227 0  23 226 0  23 227 0  24 226 0  24 227 0  25 226 0  25 227 0  26 227 0  27 227 0  28 227 0  29 227 0  30 227 0  31 227 0  32 227 0  33 227 0  34 227 0  35 227 0  36 227 0  37 227 0  38 227 0  39 226 0  39 227 0  40 227 0  41 227 0  42 227 0  43 227 0  44 227 0  45 227 0  46 227 0  47 227 0  48 227 0  49 227 0  50 227 0  51 227 0  52 227 0  53 227 0  54 227 0  55 227 0  56 227 0  57 227 0  58 227 0  59 227 0  60 227 0  61 227 0  62 227 0  63 227 0  64 227 0  65 227 0  66 227 0  67 227 0  68 226 0  69 226 0  69 227 0  68 227 0  70 226 0  70 227 0  71 226 0  71 227 0  72 226 0  72 227 0  73 226 0  73 227 0  74 226 0  74 227 0  75 227 0  1 228 0  0 228 0  2 228 0  3 228 0  4 228 0  5 228 0  6 228 0  7 228 0  8 228 0  9 228 0  10 228 0  11 228 0  12 228 0  13 228 0  14 228 0  15 228 0  16 228 0  17 228 0  18 228 0  19 228 0  20 228 0  21 228 0  22 228 0  23 228 0  24 228 0  25 228 0  26 228 0  27 228 0  28 228 0  29 228 0  30 228 0  31 228 0  32 228 0  33 228 0  34 228 0  35 228 0  36 228 0  37 228 0  38 228 0  39 228 0  40 228 0  41 228 0  42 228 0  43 228 0  44 228 0  45 228 0  46 228 0  47 228 0  48 228 0  49 228 0  50 228 0  51 228 0  52 228 0  53 228 0  54 228 0  55 228 0  56 228 0  57 228 0  58 228 0  59 228 0  60 228 0  61 228 0  62 228 0  63 228 0  64 228 0  65 228 0  66 228 0  67 228 0  68 228 0  69 228 0  70 228 0  71 228 0  72 228 0  73 228 0  74 228 0  75 228 0  76 228 0  1 229 0  0 229 0  2 229 0  3 229 0  4 229 0  5 229 0  6 229 0  7 229 0  8 229 0  9 229 0  10 229 0  11 229 0  12 229 0  13 229 0  14 229 0  15 229 0  16 229 0  17 229 0  18 229 0  19 229 0  20 229 0  21 229 0  22 229 0  23 229 0  24 229 0  25 229 0  26 229 0  27 229 0  28 229 0  29 229 0  30 229 0  31 229 0  32 229 0  33 229 0  34 229 0  35 229 0  36 229 0  37 229 0  38 229 0  39 229 0  40 229 0  41 229 0  42 229 0  43 229 0  44 229 0  45 229 0  46 229 0  47 229 0  48 229 0  49 229 0  50 229 0  51 229 0  52 229 0  53 229 0  54 229 0  55 229 0  56 229 0  57 229 0  58 229 0  59 229 0  60 229 0  61 229 0  62 229 0  63 229 0  64 229 0  65 229 0  66 229 0  67 229 0  68 229 0  69 229 0  70 229 0  71 229 0  72 229 0  73 229 0  74 229 0  75 229 0  76 229 0  77 228 0  77 229 0  78 228 0  78 229 0  79 228 0  79 229 0  80 229 0  1 230 0  0 230 0  2 230 0  3 230 0  4 230 0  5 230 0  6 230 0  7 230 0  8 230 0  9 230 0  10 230 0  11 230 0  12 230 0  13 230 0  14 230 0  15 230 0  16 230 0  17 230 0  18 230 0  19 230 0  20 230 0  21 230 0  22 230 0  23 230 0  24 230 0  25 230 0  26 230 0  27 230 0  28 230 0  29 230 0  30 230 0  31 230 0  32 230 0  33 230 0  34 230 0  35 230 0  36 230 0  37 230 0  38 230 0  39 230 0  40 230 0  41 230 0  42 230 0  43 230 0  44 230 0  45 230 0  46 230 0  47 230 0  48 230 0  49 230 0  50 230 0  51 230 0  52 230 0  53 230 0  54 230 0  55 230 0  56 230 0  57 230 0  58 230 0  59 230 0  60 230 0  61 230 0  62 230 0  63 230 0  64 230 0  65 230 0  66 230 0  67 230 0  68 230 0  69 230 0  70 230 0  71 230 0  72 230 0  73 230 0  74 230 0  75 230 0  76 230 0  77 230 0  78 230 0  79 230 0  80 230 0  81 230 0  1 231 0  0 231 0  2 231 0  3 231 0  4 231 0  5 231 0  6 231 0  7 231 0  8 231 0  9 231 0  10 231 0  11 231 0  12 231 0  13 231 0  14 231 0  15 231 0  16 231 0  17 231 0  18 231 0  19 231 0  20 231 0  21 231 0  22 231 0  23 231 0  24 231 0  25 231 0  26 231 0  27 231 0  28 231 0  29 231 0  30 231 0  31 231 0  32 231 0  33 231 0  34 231 0  35 231 0  36 231 0  37 231 0  38 231 0  39 231 0  40 231 0  41 231 0  42 231 0  43 231 0  44 231 0  45 231 0  46 231 0  47 231 0  48 231 0  49 231 0  50 231 0  51 231 0  52 231 0  53 231 0  54 231 0  55 231 0  56 231 0  57 231 0  58 231 0  59 231 0  60 231 0  61 231 0  62 231 0  63 231 0  64 231 0  65 231 0  66 231 0  67 231 0  68 231 0  69 231 0  70 231 0  71 231 0  72 231 0  73 231 0  74 231 0  75 231 0  76 231 0  77 231 0  78 231 0  79 231 0  80 231 0  81 231 0  82 230 0  82 231 0  83 230 0  83 231 0  84 231 0  1 232 0  0 232 0  2 232 0  3 232 0  4 232 0  5 232 0  6 232 0  7 232 0  8 232 0  9 232 0  10 232 0  11 232 0  12 232 0  13 232 0  14 232 0  15 232 0  16 232 0  17 232 0  18 232 0  19 232 0  20 232 0  21 232 0  22 232 0  23 232 0  24 232 0  25 232 0  26 232 0  27 232 0  28 232 0  29 232 0  30 232 0  31 232 0  32 232 0  33 232 0  34 232 0  35 232 0  36 232 0  37 232 0  38 232 0  39 232 0  40 232 0  41 232 0  42 232 0  43 232 0  44 232 0  45 232 0  46 232 0  47 232 0  48 232 0  49 232 0  50 232 0  51 232 0  52 232 0  53 232 0  54 232 0  55 232 0  56 232 0  57 232 0  58 232 0  59 232 0  60 232 0  61 232 0  62 232 0  63 232 0  64 232 0  65 232 0  66 232 0  67 232 0  68 232 0  69 232 0  70 232 0  71 232 0  72 232 0  73 232 0  74 232 0  75 232 0  76 232 0  77 232 0  78 232 0  79 232 0  80 232 0  81 232 0  82 232 0  83 232 0  84 232 0  85 231 0  85 232 0  86 231 0  86 232 0  87 231 0  87 232 0  88 231 0  88 232 0  89 231 0  89 232 0  90 232 0  1 233 0  0 233 0  2 233 0  3 233 0  4 233 0  5 233 0  6 233 0  7 233 0  8 233 0  9 233 0  10 233 0  11 233 0  12 233 0  13 233 0  14 233 0  15 233 0  16 233 0  17 233 0  18 233 0  19 233 0  20 233 0  21 233 0  22 233 0  23 233 0  24 233 0  25 233 0  26 233 0  27 233 0  28 233 0  29 233 0  30 233 0  31 233 0  32 233 0  33 233 0  34 233 0  35 233 0  36 233 0  37 233 0  38 233 0  39 233 0  40 233 0  41 233 0  42 233 0  43 233 0  44 233 0  45 233 0  46 233 0  47 233 0  48 233 0  49 233 0  50 233 0  51 233 0  52 233 0  53 233 0  54 233 0  55 233 0  56 233 0  57 233 0  58 233 0  59 233 0  60 233 0  61 233 0  62 233 0  63 233 0  64 233 0  65 233 0  66 233 0  67 233 0  68 233 0  69 233 0  70 233 0  71 233 0  72 233 0  73 233 0  74 233 0  75 233 0  76 233 0  77 233 0  78 233 0  79 233 0  80 233 0  81 233 0  82 233 0  83 233 0  84 233 0  85 233 0  86 233 0  87 233 0  88 233 0  89 233 0  90 233 0  91 233 0  1 234 0  0 234 0  2 234 0  3 234 0  4 234 0  5 234 0  6 234 0  7 234 0  8 234 0  9 234 0  10 234 0  11 234 0  12 234 0  13 234 0  14 234 0  15 234 0  16 234 0  17 234 0  18 234 0  19 234 0  20 234 0  21 234 0  22 234 0  23 234 0  24 234 0  25 234 0  26 234 0  27 234 0  28 234 0  29 234 0  30 234 0  31 234 0  32 234 0  33 234 0  34 234 0  35 234 0  36 234 0  37 234 0  38 234 0  39 234 0  40 234 0  41 234 0  42 234 0  43 234 0  44 234 0  45 234 0  46 234 0  47 234 0  48 234 0  49 234 0  50 234 0  51 234 0  52 234 0  53 234 0  54 234 0  55 234 0  56 234 0  57 234 0  58 234 0  59 234 0  60 234 0  61 234 0  62 234 0  63 234 0  64 234 0  65 234 0  66 234 0  67 234 0  68 234 0  69 234 0  70 234 0  71 234 0  72 234 0  73 234 0  74 234 0  75 234 0  76 234 0  77 234 0  78 234 0  79 234 0  80 234 0  81 234 0  82 234 0  83 234 0  84 234 0  85 234 0  86 234 0  87 234 0  88 234 0  89 234 0  90 234 0  91 234 0  1 235 0  0 235 0  2 235 0  3 235 0  4 235 0  5 235 0  6 235 0  7 235 0  8 235 0  9 235 0  10 235 0  11 235 0  12 235 0  13 235 0  14 235 0  15 235 0  16 235 0  17 235 0  18 235 0  19 235 0  20 235 0  21 235 0  22 235 0  23 235 0  24 235 0  25 235 0  26 235 0  27 235 0  28 235 0  29 235 0  30 235 0  31 235 0  32 235 0  33 235 0  34 235 0  35 235 0  36 235 0  37 235 0  38 235 0  39 235 0  40 235 0  41 235 0  42 235 0  43 235 0  44 235 0  45 235 0  46 235 0  47 235 0  48 235 0  49 235 0  50 235 0  51 235 0  52 235 0  53 235 0  54 235 0  55 235 0  56 235 0  57 235 0  58 235 0  59 235 0  60 235 0  61 235 0  62 235 0  63 235 0  64 235 0  65 235 0  66 235 0  67 235 0  68 235 0  69 235 0  70 235 0  71 235 0  72 235 0  73 235 0  74 235 0  75 235 0  76 235 0  77 235 0  78 235 0  79 235 0  80 235 0  81 235 0  82 235 0  83 235 0  84 235 0  85 235 0  86 235 0  87 235 0  88 235 0  89 235 0  90 235 0  91 235 0  1 236 0  0 236 0  2 236 0  3 236 0  4 236 0  5 236 0  6 236 0  7 236 0  8 236 0  9 236 0  10 236 0  11 236 0  12 236 0  13 236 0  14 236 0  15 236 0  16 236 0  17 236 0  18 236 0  19 236 0  20 236 0  21 236 0  22 236 0  23 236 0  24 236 0  25 236 0  26 236 0  27 236 0  28 236 0  29 236 0  30 236 0  31 236 0  32 236 0  33 236 0  34 236 0  35 236 0  36 236 0  37 236 0  38 236 0  39 236 0  40 236 0  41 236 0  42 236 0  43 236 0  44 236 0  45 236 0  46 236 0  47 236 0  48 236 0  49 236 0  50 236 0  51 236 0  52 23
[...]
<PointData  Vectors="f_85"> 
<DataArray  type="Float64"  Name="f_85"  NumberOfComponents="3" format="ascii">0.0000000000000000e+00 0.0000000000000000e+00 0.0000000000000000e+00  0.0000000000000000e+00 0.0000000000000000e+00 0.0000000000000000e+00  3.4529262520150134e+01 -3.0608055183970901e+01 0.0000000000000000e+00  3.4298766034257802e+01 -3.0892208970490788e+01 0.0000000000000000e+00  0.0000000000000000e+00 0.0000000000000000e+00 0.0000000000000000e+00  6.9052713185341119e+01 -6.0612585282648425e+01 0.0000000000000000e+00  6.8591765496010439e+01 -6.1173180830850463e+01 0.0000000000000000e+00  1.0356454043459469e+02 -9.0022484470387724e+01 0.0000000000000000e+00  1.0287323210350527e+02 -9.0851970827215169e+01 0.0000000000000000e+00  1.3713740015640801e+02 -1.1993756806814012e+02 0.0000000000000000e+00  1.3492593565500863e+03 -8.4693249852605106e+02 0.0000000000000000e+00  1.3788202841036120e+03 -8.5922312968618917e+02 0.0000000000000000e+00  1.3696947196429333e+03 -8.6618823237655215e+02 0.0000000000000000e+00  1.3403257045892337e+03 -8.5381576106907994e+02 0.0000000000000000e+00  1.4081406480760379e+03 -8.7120459774279345e+02 0.0000000000000000e+00  1.3988250322260933e+03 -8.7824889332361136e+02 0.0000000000000000e+00  1.4372148903361592e+03 -8.8288199176137573e+02 0.0000000000000000e+00  1.4277111264568041e+03 -8.9000290791862176e+02 0.0000000000000000e+00  1.4660374642434829e+03 -8.9426029620870133e+02 0.0000000000000000e+00  1.4563474977928304e+03 -9.0145533333753690e+02 0.0000000000000000e+00  1.4946028348593322e+03 -9.0534439121157402e+02 0.0000000000000000e+00  1.4847286532385135e+03 -9.1261112021697102e+02 0.0000000000000000e+00  1.5229054791540264e+03 -9.1613905285389399e+02 0.0000000000000000e+00  1.5128491115476832e+03 -9.2347511298670861e+02 0.0000000000000000e+00  1.5407034034224853e+03 -9.3405205023905307e+02 0.0000000000000000e+00  1.6061820066865355e+03 -9.4683264503504711e+02 0.0000000000000000e+00  1.6333787606027952e+03 -9.5651526555172597e+02 0.0000000000000000e+00  1.6226147707442669e+03 -9.6410633594763112e+02 0.0000000000000000e+00  1.5955916715827148e+03 -9.5436318582670833e+02 0.0000000000000000e+00  1.6602853586484755e+03 -9.6593078525336000e+02 0.0000000000000000e+00  1.6493499495911694e+03 -9.7358033507799360e+02 0.0000000000000000e+00  1.6757918013996139e+03 -9.8278939927298757e+02 0.0000000000000000e+00  3.4064036370868109e+01 -3.1167243424791941e+01 0.0000000000000000e+00  0.0000000000000000e+00 0.0000000000000000e+00 0.0000000000000000e+00  6.8122352160899240e+01 -6.1715601800697662e+01 0.0000000000000000e+00  1.0216922707676709e+02 -9.1654293497132556e+01 0.0000000000000000e+00  1.3619894140007943e+02 -1.2099246976028772e+02 0.0000000000000000e+00  1.7020577627462691e+02 -1.4973921256536650e+02 0.0000000000000000e+00  9.7130104088432495e+02 -6.7899866195152151e+02 0.0000000000000000e+00  1.0031004177996764e+03 -6.9555473318721056e+02 0.0000000000000000e+00  9.9626460434272849e+02 -7.0110107180641228e+02 0.0000000000000000e+00  9.6468005341908452e+02 -6.8443125204293290e+02 0.0000000000000000e+00  1.0347280869876784e+03 -7.1172865138243935e+02 0.0000000000000000e+00  1.0276788125595826e+03 -7.1738511349097564e+02 0.0000000000000000e+00  1.0661784139486747e+03 -7.2752686755985474e+02 0.0000000000000000e+00  1.0589170880255294e+03 -7.3328993232717619e+02 0.0000000000000000e+00  1.0899738491727019e+03 -7.4882197462996544e+02 0.0000000000000000e+00  1.3604001005977268e+03 -8.7284478898497855e+02 0.0000000000000000e+00  1.3312266220818792e+03 -8.6039574862198322e+02 0.0000000000000000e+00  1.3893367674000806e+03 -8.8497947881412733e+02 0.0000000000000000e+00  1.4180311495565513e+03 -8.9680505680961323e+02 0.0000000000000000e+00  1.4464777853231110e+03 -9.0832665256350413e+02 0.0000000000000000e+00  1.4746712243467973e+03 -9.1954928688971529e+02 0.0000000000000000e+00  1.5026060278643677e+03 -9.3047787219456654e+02 0.0000000000000000e+00  1.5302767688968102e+03 -9.4111721288517276e+02 0.0000000000000000e+00  1.5682860717080232e+03 -9.4434656513243374e+02 0.0000000000000000e+00  1.5576780324396036e+03 -9.5147200581292884e+02 0.0000000000000000e+00  1.5848044156486294e+03 -9.6154684074937165e+02 0.0000000000000000e+00  1.6116505280216336e+03 -9.7134620089174621e+02 0.0000000000000000e+00  1.6382109915751325e+03 -9.8087446339564622e+02 0.0000000000000000e+00  1.6644804410166682e+03 -9.9013589993214225e+02 0.0000000000000000e+00  1.7019349324957213e+03 -9.9173764159738232e+02 0.0000000000000000e+00  1.6904535239123002e+03 -9.9913467726687497e+02 0.0000000000000000e+00  1.7277739624230005e+03 -1.0004290726821725e+03 0.0000000000000000e+00  1.7161249008492418e+03 -1.0078748578586449e+03 0.0000000000000000e+00  1.7414892455935287e+03 -1.0163604004750970e+03 0.0000000000000000e+00  3.3825027538312881e+01 -3.1432994540019280e+01 0.0000000000000000e+00  0.0000000000000000e+00 0.0000000000000000e+00 0.0000000000000000e+00  6.7644381199912957e+01 -6.2239521062055708e+01 0.0000000000000000e+00  1.0145238739234361e+02 -9.2428963212369638e+01 0.0000000000000000e+00  1.3524337309157247e+02 -1.2201063652255174e+02 0.0000000000000000e+00  1.6901166612598371e+02 -1.5099378615444996e+02 0.0000000000000000e+00  2.0275159546010576e+02 -1.7938758465806134e+02 0.0000000000000000e+00  4.0713292536559470e+02 -3.3515363755150452e+02 0.0000000000000000e+00  4.4075104379233676e+02 -3.5948685712655970e+02 0.0000000000000000e+00  4.3766091948868313e+02 -3.6239657497844036e+02 0.0000000000000000e+00  4.0427817023422574e+02 -3.3787796155807172e+02 0.0000000000000000e+00  4.7429489905981177e+02 -3.8330691976102662e+02 0.0000000000000000e+00  4.7097001155065152e+02 -3.8639634367663871e+02 0.0000000000000000e+00  5.0419979829047026e+02 -4.0988569090079250e+02 0.0000000000000000e+00  8.6896036679980091e+02 -6.3203994795480344e+02 0.0000000000000000e+00  9.0102232452822136e+02 -6.4990751547974787e+02 0.0000000000000000e+00  8.9472170076488362e+02 -6.5487922786146635e+02 0.0000000000000000e+00  8.6288242571062403e+02 -6.3689337154536111e+02 0.0000000000000000e+00  9.3293075806264369e+02 -6.6736899049206522e+02 0.0000000000000000e+00  9.2640870188556050e+02 -6.7245514531667902e+02 0.0000000000000000e+00  9.5793786054446275e+02 -6.8962811553377264e+02 0.0000000000000000e+00  9.8930361584857076e+02 -7.0640502011656974e+02 0.0000000000000000e+00  1.0205004147880971e+03 -7.2279263005991425e+02 0.0000000000000000e+00  1.0515227124819214e+03 -7.3879760523994912e+02 0.0000000000000000e+00  1.0823649724203156e+03 -7.5442649398301990e+02 0.0000000000000000e+00  1.1208435231530700e+03 -7.6398757743396106e+02 0.0000000000000000e+00  1.1130216667048501e+03 -7.6968573271131504e+02 0.0000000000000000e+00  1.1515205460791565e+03 -7.7879296819979493e+02 0.0000000000000000e+00  1.1434872762853979e+03 -7.8458164566317168e+02 0.0000000000000000e+00  1.1819993632617754e+03 -7.9324426458950063e+02 0.0000000000000000e+00  1.1737562911941291e+03 -7.9912044468579927e+02 0.0000000000000000e+00  1.2122744294447109e+03 -8.0734747430875734e+02 0.0000000000000000e+00  1.2038232107764056e+03 -8.1330822909803464e+02 0.0000000000000000e+00  1.2336825439184761e+03 -8.2715098562059904e+02 0.0000000000000000e+00  1.3018218157666397e+03 -8.4762700963025020e+02 0.0000000000000000e+00  1.3219602613676657e+03 -8.6666726641566459e+02 0.0000000000000000e+00  1.2927565354744024e+03 -8.5382479892194306e+02 0.0000000000000000e+00  1.3509345362109470e+03 -8.7918752773929180e+02 0.0000000000000000e+00  1.3796739198914338e+03 -8.9139100775034672e+02 0.0000000000000000e+00  1.4081729831306268e+03 -9.0328301955423933e+02 0.0000000000000000e+00  1.4364263076868549e+03 -9.1486876482919070e+02 0.0000000000000000e+00  1.4644284865537870e+03 -9.2615333419585954e+02 0.0000000000000000e+00  1.4921741241548411e+03 -9.3714170762870924e+02 0.0000000000000000e+00  1.5196578365333896e+03 -9.4783875490618311e+02 0.0000000000000000e+00  1.5468742515386489e+03 -9.5824923609677819e+02 0.0000000000000000e+00  1.5738180090071617e+03 -9.6837780207814342e+02 0.0000000000000000e+00  1.6004837609397530e+03 -9.7822899508637624e+02 0.0000000000000000e+00  1.6268661716738695e+03 -9.8780724929274288e+02 0.0000000000000000e+00  1.6529599180511846e+03 -9.9711689140510055e+02 0.0000000000000000e+00  1.6787596895803686e+03 -1.0061621412913703e+03 0.0000000000000000e+00  1.7042601885949198e+03 -1.0149471126224749e+03 0.0000000000000000e+00  1.7294561304059457e+03 -1.0234758135322222e+03 0.0000000000000000e+00  1.7665412452426199e+03 -1.0245951608231642e+03 0.0000000000000000e+00  1.7543422434497863e+03 -1.0317521472916985e+03 0.0000000000000000e+00  1.7912756003728289e+03 -1.0325828921920045e+03 0.0000000000000000e+00  1.7789132694303780e+03 -1.0397799129958084e+03 0.0000000000000000e+00  1.8156870251814801e+03 -1.0403272461062381e+03 0.0000000000000000e+00  1.8031639634562412e+03 -1.0475628062596747e+03 0.0000000000000000e+00  1.8397702476236836e+03 -1.0478317729873670e+03 0.0000000000000000e+00  1.8270890941719972e+03 -1.0551044199227044e+03 0.0000000000000000e+00  1.8635200095436314e+03 -1.0550999228213309e+03 0.0000000000000000e+00  1.8506834438842880e+03 -1.0624082447581898e+03 0.0000000000000000e+00  1.8869310668003016e+03 -1.0621350458302313e+03 0.0000000000000000e+00  1.8739418086820108e+03 -1.0694776701864200e+03 0.0000000000000000e+00  1.9099981893874788e+03 -1.0689403931463326e+03 0.0000000000000000e+00  1.8968589985507385e+03 -1.0763159849893320e+03 0.0000000000000000e+00  1.9327161615479756e+03 -1.0755191174865229e+03 0.0000000000000000e+00  1.9194298374812402e+03 -1.0829263780248418e+03 0.0000000000000000e+00  1.9550797818819576e+03 -1.0818742738254946e+03 0.0000000000000000e+00  1.9416491635719678e+03 -1.0893119389390547e+03 0.0000000000000000e+00  1.9635118291254241e+03 -1.0954756588746470e+03 0.0000000000000000e+00  3.3581692832467937e+01 -3.1689296155974606e+01 0.0000000000000000e+00  0.0000000000000000e+00 0.0000000000000000e+00 0.0000000000000000e+00  6.7157759208057783e+01 -6.2744607177881363e+01 0.0000000000000000e+00  1.0072257295088109e+02 -9.3175484250483748e+01 0.0000000000000000e+00  1.3427050844694003e+02 -1.2299140944584487e+02 0.0000000000000000e+00  1.6779594092485070e+02 -1.5220179335456547e+02 0.0000000000000000e+00  2.0129324673630077e+02 -1.8081597273130166e+02 0.0000000000000000e+00  2.3645749147798756e+02 -2.0720112974865830e+02 0.0000000000000000e+00  2.3475680363615186e+02 -2.0884320816127794e+02 0.0000000000000000e+00  2.7012368626613392e+02 -2.3444344210927599e+02 0.0000000000000000e+00  2.6818099106209752e+02 -2.3629268175435476e+02 0.0000000000000000e+00  3.0374451389591258e+02 -2.6112346322450810e+02 0.0000000000000000e+00  3.0156019041378977e+02 -2.6317349487301368e+02 0.0000000000000000e+00  3.3731431070534398e+02 -2.8725005325135288e+02 0.0000000000000000e+00  3.3488878533134232e+02 -2.8949466590039543e+02 0.0000000000000000e+00  3.7082741558018654e+02 -3.1283198893261090e+02 0.0000000000000000e+00  3.6816116197312357e+02 -3.1526512805426347e+02 0.0000000000000000e+00  4.0137170929274822e+02 -3.4049372725247639e+02 0.0000000000000000e+00  4.3451481931517958e+02 -3.6518922003523664e+02 0.0000000000000000e+00  4.6758488741185249e+02 -3.8936027154904031e+02 0.0000000000000000e+00  5.0057631257472445e+02 -4.1301545359689482e+02 0.0000000000000000e+00  5.3734463551794897e+02 -4.3287294686286737e+02 0.0000000000000000e+00  5.3348349768916933e+02 -4.3616324275899206e+02 0.0000000000000000e+00  5.7039888325735353e+02 -4.5536634700655662e+02 0.0000000000000000e+00  5.6630084980561912e+02 -4.5881201858763507e+02 0.0000000000000000e+00  6.0335690602106058e+02 -4.7737403034766299e+02 0.0000000000000000e+00  5.9902278040986619e+02 -4.8097006187981594e+02 0.0000000000000000e+00  6.3621307308179269e+02 -4.9890403788983298e+02 0.0000000000000000e+00  6.3164370569193102e+02 -5.0264555303043295e+02 0.0000000000000000e+00  6.6896175874334460e+02 -5.1996431111813195e+02 0.0000000000000000e+00  6.6415804681340978e+02 -5.2384657046872621e+02 0.0000000000000000e+00  7.0159734260970754e+02 -5.4056269057256702e+02 0.0000000000000000e+00  6.9656023017320524e+02 -5.4458108918010112e+02 0.0000000000000000e+00  7.3411420985250163e+02 -5.6070691450328525e+02 0.0000000000000000e+00  7.2884468767155238e+02 -5.6485697931509662e+02 0.0000000000000000e+00  7.6650675147662719e+02 -5.8040461760880657e+02 0.0000000000000000e+00  7.6100585697224267e+02 -5.8468200488685659e+02 0.0000000000000000e+00  7.9876936458403964e+02 -5.9966332985828308e+02 0.0000000000000000e+00  7.9303818176295977e+02 -6.0406382255806966e+02 0.0000000000000000e+00  8.3089645263555974e+02 -6.1849047539842161e+02 0.0000000000000000e+00  8.2493611201362944e+02 -6.2300998051795352e+02 0.0000000000000000e+00  8.5669410423269017e+02 -6.4152791744949855e+02 0.0000000000000000e+00  8.8830662172119469e+02 -6.5962496158682268e+02 0.0000000000000000e+00  9.1976813482464354e+02 -6.7730832986215694e+02 0.0000000000000000e+00  9.5107312118245704e+02 -6.9458512714165431e+02 0.0000000000000000e+00  9.8221606597499363e+02 -7.1146234554892510e+02 0.0000000000000000e+00  1.0131914621680161e+03 -7.2794686387490731e+02 0.0000000000000000e+00  1.0439938107545070e+03 -7.4404544707243110e+02 0.0000000000000000e+00  1.0746176209937430e+03 -7.5976474583359470e+02 0.0000000000000000e+00  1.1050574106475256e+03 -7.7511129624785269e+02 0.0000000000000000e+00  1.1353077062134721e+03 -7.9009151953852177e+02 0.0000000000000000e+00  1.1653630431552704e+03 -8.0471172187523530e+02 0.0000000000000000e+00  1.1952179661297935e+03 -8.1897809425972900e+02 0.0000000000000000e+00  1.2248670292109812e+03 -8.3289671248219997e+02 0.0000000000000000e+00  1.2633288092718713e+03 -8.4065458837122787e+02 0.0000000000000000e+00  1.2543047961103837e+03 -8.4647353714538303e+02 0.0000000000000000e+00  1.2835258403942673e+03 -8.5971441375337486e+02 0.0000000000000000e+00  1.3125247456971831e+03 -8.7262507286218590e+02 0.0000000000000000e+00  1.3412961059318945e+03 -8.8521113028892228e+02 0.0000000000000000e+00  1.3698345254955630e+03 -8.9747808737647392e+02 0.0000000000000000e+00  1.3981346194720854e+03 -9.0943133131055151e+02 0.0000000000000000e+00  1.4261910138304847e+03 -9.2107613548590518e+02 0.0000000000000000e+00  1.4539983456192438e+03 -9.3241765991856823e+02 0.0000000000000000e+00  1.4815512631564814e+03 -9.4346095170097283e+02 0.0000000000000000e+00  1.5088444262158632e+03 -9.5421094549681743e+02 0.0000000000000000e+00  1.5358725062081398e+03 -9.6467246407260234e+02 0.0000000000000000e+00  1.5626301863582103e+03 -9.7485021886279219e+02 0.0000000000000000e+00  1.5891121618775949e+03 -9.8474881056561787e+02 0.0000000000000000e+00  1.6153131401322185e+03 -9.9437272976659426e+02 0.0000000000000000e+00  1.6412278408053905e+03 -1.0037263575868915e+03 0.0000000000000000e+00  1.6668509960558674e+03 -1.0128139663537759e+03 0.0000000000000000e+00  1.6921773506709048e+03 -1.0216397202904077e+03 0.0000000000000000e+00  1.7172016622141643e+03 -1.0302076762223637e+03 0.0000000000000000e+00  1.7419187011683885e+03 -1.0385217842983457e+03 0.0000000000000000e+00  1.7663232510727146e+03 -1.0465858887226013e+03 0.0000000000000000e+00  1.7904101086545247e+03 -1.0544037284966942e+03 0.0000000000000000e+00  1.8141740839557190e+03 -1.0619789381683304e+03 0.0000000000000000e+00  1.8376100004532927e+03 -1.0693150485850499e+03 0.0000000000000000e+00  1.8607126951741197e+03 -1.0764154876506718e+03 0.0000000000000000e+00  1.8834770188038069e+03 -1.0832835810824786e+03 0.0000000000000000e+00  1.9058978357895296e+03 -1.0899225531672028e+03 0.0000000000000000e+00  1.9279700244367166e+03 -1.0963355275139813e+03 0.0000000000000000e+00  1.9496884769994833e+03 -1.1025255278025168e+03 0.0000000000000000e+00  1.9710480997646930e+03 -1.1084954785247692e+03 0.0000000000000000e+00  2.0061466593852142e+03 -1.1071490520740201e+03 0.0000000000000000e+00  2.0269086004961382e+03 -1.1126642213957100e+03 0.0000000000000000e+00  2.0126705516724992e+03 -1.1197864376918269e+03 0.0000000000000000e+00  1.9920438131295321e+03 -1.1142482057185966e+03 0.0000000000000000e+00  2.0472934340270770e+03 -1.1179685432195101e+03 0.0000000000000000e+00  2.0329232642176723e+03 -1.1251128057353369e+03 0.0000000000000000e+00  2.0672960845242346e+03 -1.1230645265526580e+03 0.0000000000000000e+00  2.0527969138921685e+03 -1.1302298448237814e+03 0.0000000000000000e+00  2.0869114911813458e+03 -1.1279545859827547e+03 0.0000000000000000e+00  2.0722864781766607e+03 -1.1351399943026888e+03 0.0000000000000000e+00  2.1061346078901483e+03 -1.1326410423178643e+03 0.0000000000000000e+00  2.0913869489488584e+03 -1.1398455985607247e+03 0.0000000000000000e+00  2.1249604032838820e+03 -1.1371261232118038e+03 0.0000000000000000e+00  2.1100933325198362e+03 -1.1443489076859719e+03 0.0000000000000000e+00  2.1284006496630955e+03 -1.1486520781051647e+03 0.0000000000000000e+00  3.3333984833498562e+01 -3.1935979850669852e+01 0.0000000000000000e+00  0.0000000000000000e+00 0.0000000000000000e+00 0.0000000000000000e+00  6.6662391348930797e+01 -6.3230524187683486e+01 0.0000000000000000e+00  9.9979641505942155e+01 -9.3893354110511254e+01 0.0000000000000000e+00  1.3328015781951245e+02 -1.2393412060045050e+02 0.0000000000000000e+00  1.6655836363739931e+02 -1.5336240203133750e+02 0.0000000000000000e+00  1.9980868341731397e+02 -1.8218770169597411e+02 0.0000000000000000e+00  2.3302554300373905e+02 -2.1041944535546921e+02 0.0000000000000000e+00  2.6620336990429894e+02 -2.3806697881852338e+02 0.0000000000000000e+00  2.9933659356559411e+02 -2.6513956555746842e+02 0.0000000000000000e+00  3.3241964564840760e+02 -2.9164638436762397e+02 0.0000000000000000e+00  3.6544696030219609e+02 -3.1759652707624332e+02 0.0000000000000000e+00  3.9841297443877323e+02 -3.4299899630700577e+02 0.0000000000000000e+00  4.3131212800509610e+02 -3.6786270330566151e+02 0.0000000000000000e+00  4.6413886425506541e+02 -3.9219646583206327e+02 0.0000000000000000e+00  4.9688763002024575e+02 -4.1600900612342662e+02 0.0000000000000000e+00  5.2955287597941754e+02 -4.3930894893324290e+02 0.0000000000000000e+00  5.6212905692686923e+02 -4.6210481964984774e+02 0.0000000000000000e+00  5.9461063203933645e+02 -4.8440504249820498e+02 0.0000000000000000e+00  6.2699206514149762e+02 -5.0621793882802859e+02 0.0000000000000000e+00  6.5926782496993485e+02 -5.2755172549091094e+02 0.0000000000000000e+00  6.9143238543546568e+02 -5.4841451330868699e+02 0.0000000000000000e+00  7.2348022588375295e+02 -5.6881430563481524e+02 0.0000000000000000e+00  7.5540583135410247e+02 -5.8875899701012588e+02 0.0000000000000000e+00  7.8720369283634932e+02 -6.0825637191385738e+02 0.0000000000000000e+00  8.1886830752574599e+02 -6.2731410361049632e+02 0.0000000000000000e+00  8.5039417907575148e+02 -6.4593975309252880e+02 0.0000000000000000e+00  8.8177581784862798e+02 -6.6414076811884183e+02 0.0000000000000000e+00  9.1300774116375374e+02 -6.8192448234814367e+02 0.0000000000000000e+00  9.4408447354355030e+02 -6.9929811456643438e+02 0.0000000000000000e+00  9.7500054695692972e+02 -7.1626876800724108e+02 0.0000000000000000e+00  1.0057505010601704e+03 -7.3284342976303105e+02 0.0000000000000000e+00  1.0363288834351106e+03 -7.4902897028594498e+02 0.0000000000000000e+00  1.0667302498245788e+03 -7.6483214297574693e+02 0.0000000000000000e+00  1.0969491643649460e+03 -7.8025958385265153e+02 0.0000000000000000e+00  1.1269801998157122e+03 -7.9531781131249954e+02 0.0000000000000000e+00  1.1568179377860210e+03 -8.1001322596156376e+02 0.0000000000000000e+00  1.1864569689580035e+03 -8.2435211052811690e+02 0.0000000000000000e+00  1.2158918933068521e+03 -8.3834062984776142e+02 0.0000000000000000e+00  1.2451173203175183e+03 -8.5198483091940170e+02 0.0000000000000000e+00  1.2741278691979335e+03 -8.6529064302865993e+02 0.0000000000000000e+00  1.3029181690886537e+03 -8.7826387793545382e+02 0.0000000000000000e+00  1.3314828592688186e+03 -8.9091023012240919e+02 0.0000000000000000e+00  1.3598165893583207e+03 -9.0323527710074779e+02 0.0000000000000000e+00  1.3879140195160849e