<?xml version="1.0"?>
<VTKFile type="UnstructuredGrid"  version="0.1"  >
<UnstructuredGrid>
<Piece  NumberOfPoints="7356" NumberOfCells="14337">
<Points>
<DataArray  type="Float64"  NumberOfComponents="3"  format="ascii">0 106 0  0 107 0  1 107 0  1 108 0  0 108 0  2 108 0  1 109 0  0 109 0  2 109 0  3 108 0  3 109 0  4 109 0  1 110 0  0 110 0  2 110 0  3 110 0  4 110 0  5 109 0  5 110 0  6 110 0  1 111 0  0 111 0  2 111 0  3 111 0  4 111 0  5 111 0  6 111 0  7 110 0  7 111 0  8 110 0  8 111 0  9 111 0  1 112 0  0 112 0  2 112 0  3 112 0  4 112 0  5 112 0  6 112 0  7 112 0  8 112 0  9 112 0  10 112 0  1 113 0  0 113 0  2 113 0  3 113 0  4 113 0  5 113 0  6 113 0  7 113 0  8 113 0  9 113 0  10 113 0  11 113 0  1 114 0  0 114 0  2 114 0  3 114 0  4 114 0  5 114 0  6 114 0  7 114 0  8 114 0  9 114 0  10 114 0  11 114 0  12 113 0  12 114 0  13 113 0  13 114 0  14 113 0  14 114 0  15 114 0  1 115 0  0 115 0  2 115 0  3 115 0  4 115 0  5 115 0  6 115 0  7 115 0  8 115 0  9 115 0  10 115 0  11 115 0  12 115 0  13 115 0  14 115 0  15 115 0  16 114 0  16 115 0  17 114 0  17 115 0  18 115 0  1 116 0  0 116 0  2 116 0  3 116 0  4 116 0  5 116 0  6 116 0  7 116 0  8 116 0  9 116 0  10 116 0  11 116 0  12 116 0  13 116 0  14 116 0  15 116 0  16 116 0  17 116 0  18 116 0  19 115 0  19 116 0  20 116 0  1 117 0  0 117 0  2 117 0  3 117 0  4 117 0  5 117 0  6 117 0  7 117 0  8 117 0  9 117 0  10 117 0  11 117 0  12 117 0  13 117 0  14 117 0  15 117 0  16 117 0  17 117 0  18 117 0  19 117 0  20 117 0  21 116 0  21 117 0  22 117 0  1 118 0  0 118 0  2 118 0  3 118 0  4 118 0  5 118 0  6 118 0  7 118 0  8 118 0  9 118 0  10 118 0  11 118 0  12 118 0  13 118 0  14 118 0  15 118 0  16 118 0  17 118 0  18 118 0  19 118 0  20 118 0  21 118 0  22 118 0  23 118 0  1 119 0  0 119 0  2 119 0  3 119 0  4 119 0  5 119 0  6 119 0  7 119 0  8 119 0  9 119 0  10 119 0  11 119 0  12 119 0  13 119 0  14 119 0  15 119 0  16 119 0  17 119 0  18 119 0  19 119 0  20 119 0  21 119 0  22 119 0  23 119 0  24 118 0  24 119 0  25 118 0  25 119 0  26 118 0  26 119 0  27 118 0  27 119 0  28 118 0  28 119 0  29 119 0  1 120 0  0 120 0  2 120 0  3 120 0  4 120 0  5 120 0  6 120 0  7 120 0  8 120 0  9 120 0  10 120 0  11 120 0  12 120 0  13 120 0  14 120 0  15 120 0  16 120 0  17 120 0  18 120 0  19 120 0  20 120 0  21 120 0  22 120 0  23 120 0  24 120 0  25 120 0  26 120 0  27 120 0  28 120 0  29 120 0  30 120 0  1 121 0  0 121 0  2 121 0  3 121 0  4 121 0  5 121 0  6 121 0  7 121 0  8 121 0  9 121 0  10 121 0  11 121 0  12 121 0  13 121 0  14 121 0  15 121 0  16 121 0  17 121 0  18 121 0  19 121 0  20 121 0  21 121 0  22 121 0  23 121 0  24 121 0  25 121 0  26 121 0  27 121 0  28 121 0  29 121 0  30 121 0  31 120 0  31 121 0  32 120 0  32 121 0  33 121 0  1 122 0  0 122 0  2 122 0  3 122 0  4 122 0  5 122 0  6 122 0  7 122 0  8 122 0  9 122 0  10 122 0  11 122 0  12 122 0  13 122 0  14 122 0  15 122 0  16 122 0  17 122 0  18 122 0  19 122 0  20 122 0  21 122 0  22 122 0  23 122 0  24 122 0  25 122 0  26 122 0  27 122 0  28 122 0  29 122 0  30 122 0  31 122 0  32 122 0  33 122 0  34 121 0  34 122 0  35 122 0  1 123 0  0 123 0  2 123 0  3 123 0  4 123 0  5 123 0  6 123 0  7 123 0  8 123 0  9 123 0  10 123 0  11 123 0  12 123 0  13 123 0  14 123 0  15 123 0  16 123 0  17 123 0  18 123 0  19 123 0  20 123 0  21 123 0  22 123 0  23 123 0  24 123 0  25 123 0  26 123 0  27 123 0  28 123 0  29 123 0  30 123 0  31 123 0  32 123 0  33 123 0  34 123 0  35 123 0  36 122 0  36 123 0  37 123 0  1 124 0  0 124 0  2 124 0  3 124 0  4 124 0  5 124 0  6 124 0  7 124 0  8 124 0  9 124 0  10 124 0  11 124 0  12 124 0  13 124 0  14 124 0  15 124 0  16 124 0  17 124 0  18 124 0  19 124 0  20 124 0  21 124 0  22 124 0  23 124 0  24 124 0  25 124 0  26 124 0  27 124 0  28 124 0  29 124 0  30 124 0  31 124 0  32 124 0  33 124 0  34 124 0  35 124 0  36 124 0  37 124 0  38 124 0  1 125 0  0 125 0  2 125 0  3 125 0  4 125 0  5 125 0  6 125 0  7 125 0  8 125 0  9 125 0  10 125 0  11 125 0  12 125 0  13 125 0  14 125 0  15 125 0  16 125 0  17 125 0  18 125 0  19 125 0  20 125 0  21 125 0  22 125 0  23 125 0  24 125 0  25 125 0  26 125 0  27 125 0  28 125 0  29 125 0  30 125 0  31 125 0  32 125 0  33 125 0  34 125 0  35 125 0  36 125 0  37 125 0  38 125 0  39 125 0  1 126 0  0 126 0  2 126 0  3 126 0  4 126 0  5 126 0  6 126 0  7 126 0  8 126 0  9 126 0  10 126 0  11 126 0  12 126 0  13 126 0  14 126 0  15 126 0  16 126 0  17 126 0  18 126 0  19 126 0  20 126 0  21 126 0  22 126 0  23 126 0  24 126 0  25 126 0  26 126 0  27 126 0  28 126 0  29 126 0  30 126 0  31 126 0  32 126 0  33 126 0  34 126 0  35 126 0  36 126 0  37 126 0  38 126 0  39 126 0  40 126 0  1 127 0  0 127 0  2 127 0  3 127 0  4 127 0  5 127 0  6 127 0  7 127 0  8 127 0  9 127 0  10 127 0  11 127 0  12 127 0  13 127 0  14 127 0  15 127 0  16 127 0  17 127 0  18 127 0  19 127 0  20 127 0  21 127 0  22 127 0  23 127 0  24 127 0  25 127 0  26 127 0  27 127 0  28 127 0  29 127 0  30 127 0  31 127 0  32 127 0  33 127 0  34 127 0  35 127 0  36 127 0  37 127 0  38 127 0  39 127 0  40 127 0  41 127 0  1 128 0  0 128 0  2 128 0  3 128 0  4 128 0  5 128 0  6 128 0  7 128 0  8 128 0  9 128 0  10 128 0  11 128 0  12 128 0  13 128 0  14 128 0  15 128 0  16 128 0  17 128 0  18 128 0  19 128 0  20 128 0  21 128 0  22 128 0  23 128 0  24 128 0  25 128 0  26 128 0  27 128 0  28 128 0  29 128 0  30 128 0  31 128 0  32 128 0  33 128 0  34 128 0  35 128 0  36 128 0  37 128 0  38 128 0  39 128 0  40 128 0  41 128 0  42 128 0  1 129 0  0 129 0  2 129 0  3 129 0  4 129 0  5 129 0  6 129 0  7 129 0  8 129 0  9 129 0  10 129 0  11 129 0  12 129 0  13 129 0  14 129 0  15 129 0  16 129 0  17 129 0  18 129 0  19 129 0  20 129 0  21 129 0  22 129 0  23 129 0  24 129 0  25 129 0  26 129 0  27 129 0  28 129 0  29 129 0  30 129 0  31 129 0  32 129 0  33 129 0  34 129 0  35 129 0  36 129 0  37 129 0  38 129 0  39 129 0  40 129 0  41 129 0  42 129 0  43 128 0  43 129 0  44 129 0  1 130 0  0 130 0  2 130 0  3 130 0  4 130 0  5 130 0  6 130 0  7 130 0  8 130 0  9 130 0  10 130 0  11 130 0  12 130 0  13 130 0  14 130 0  15 130 0  16 130 0  17 130 0  18 130 0  19 130 0  20 130 0  21 130 0  22 130 0  23 130 0  24 130 0  25 130 0  26 130 0  27 130 0  28 130 0  29 130 0  30 130 0  31 130 0  32 130 0  33 130 0  34 130 0  35 130 0  36 130 0  37 130 0  38 130 0  39 130 0  40 130 0  41 130 0  42 130 0  43 130 0  44 130 0  45 130 0  1 131 0  0 131 0  2 131 0  3 131 0  4 131 0  5 131 0  6 131 0  7 131 0  8 131 0  9 131 0  10 131 0  11 131 0  12 131 0  13 131 0  14 131 0  15 131 0  16 131 0  17 131 0  18 131 0  19 131 0  20 131 0  21 131 0  22 131 0  23 131 0  24 131 0  25 131 0  26 131 0  27 131 0  28 131 0  29 131 0  30 131 0  31 131 0  32 131 0  33 131 0  34 131 0  35 131 0  36 131 0  37 131 0  38 131 0  39 131 0  40 131 0  41 131 0  42 131 0  43 131 0  44 131 0  45 131 0  46 131 0  1 132 0  0 132 0  2 132 0  3 132 0  4 132 0  5 132 0  6 132 0  7 132 0  8 132 0  9 132 0  10 132 0  11 132 0  12 132 0  13 132 0  14 132 0  15 132 0  16 132 0  17 132 0  18 132 0  19 132 0  20 132 0  21 132 0  22 132 0  23 132 0  24 132 0  25 132 0  26 132 0  27 132 0  28 132 0  29 132 0  30 132 0  31 132 0  32 132 0  33 132 0  34 132 0  35 132 0  36 132 0  37 132 0  38 132 0  39 132 0  40 132 0  41 132 0  42 132 0  43 132 0  44 132 0  45 132 0  46 132 0  47 132 0  1 133 0  0 133 0  2 133 0  3 133 0  4 133 0  5 133 0  6 133 0  7 133 0  8 133 0  9 133 0  10 133 0  11 133 0  12 133 0  13 133 0  14 133 0  15 133 0  16 133 0  17 133 0  18 133 0  19 133 0  20 133 0  21 133 0  22 133 0  23 133 0  24 133 0  25 133 0  26 133 0  27 133 0  28 133 0  29 133 0  30 133 0  31 133 0  32 133 0  33 133 0  34 133 0  35 133 0  36 133 0  37 133 0  38 133 0  39 133 0  40 133 0  41 133 0  42 133 0  43 133 0  44 133 0  45 133 0  46 133 0  47 133 0  48 133 0  1 134 0  0 134 0  2 134 0  3 134 0  4 134 0  5 134 0  6 134 0  7 134 0  8 134 0  9 134 0  10 134 0  11 134 0  12 134 0  13 134 0  14 134 0  15 134 0  16 134 0  17 134 0  18 134 0  19 134 0  20 134 0  21 134 0  22 134 0  23 134 0  24 134 0  25 134 0  26 134 0  27 134 0  28 134 0  29 134 0  30 134 0  31 134 0  32 134 0  33 134 0  34 134 0  35 134 0  36 134 0  37 134 0  38 134 0  39 134 0  40 134 0  41 134 0  42 134 0  43 134 0  44 134 0  45 134 0  46 134 0  47 134 0  48 134 0  49 133 0  49 134 0  50 133 0  50 134 0  51 134 0  1 135 0  0 135 0  2 135 0  3 135 0  4 135 0  5 135 0  6 135 0  7 135 0  8 135 0  9 135 0  10 135 0  11 135 0  12 135 0  13 135 0  14 135 0  15 135 0  16 135 0  17 135 0  18 135 0  19 135 0  20 135 0  21 135 0  22 135 0  23 135 0  24 135 0  25 135 0  26 135 0  27 135 0  28 135 0  29 135 0  30 135 0  31 135 0  32 135 0  33 135 0  34 135 0  35 135 0  36 135 0  37 135 0  38 135 0  39 135 0  40 135 0  41 135 0  42 135 0  43 135 0  44 135 0  45 135 0  46 135 0  47 135 0  48 135 0  49 135 0  50 135 0  51 135 0  52 135 0  1 136 0  0 136 0  2 136 0  3 136 0  4 136 0  5 136 0  6 136 0  7 136 0  8 136 0  9 136 0  10 136 0  11 136 0  12 136 0  13 136 0  14 136 0  15 136 0  16 136 0  17 136 0  18 136 0  19 136 0  20 136 0  21 136 0  22 136 0  23 136 0  24 136 0  25 136 0  26 136 0  27 136 0  28 136 0  29 136 0  30 136 0  31 136 0  32 136 0  33 136 0  34 136 0  35 136 0  36 136 0  37 136 0  38 136 0  39 136 0  40 136 0  41 136 0  42 136 0  43 136 0  44 136 0  45 136 0  46 136 0  47 136 0  48 136 0  49 136 0  50 136 0  51 136 0  52 136 0  53 136 0  1 137 0  0 137 0  2 137 0  3 137 0  4 137 0  5 137 0  6 137 0  7 137 0  8 137 0  9 137 0  10 137 0  11 137 0  12 137 0  13 137 0  14 137 0  15 137 0  16 137 0  17 137 0  18 137 0  19 137 0  20 137 0  21 137 0  22 137 0  23 137 0  24 137 0  25 137 0  26 137 0  27 137 0  28 137 0  29 137 0  30 137 0  31 137 0  32 137 0  33 137 0  34 137 0  35 137 0  36 137 0  37 137 0  38 137 0  39 137 0  40 137 0  41 137 0  42 137 0  43 137 0  44 137 0  45 137 0  46 137 0  47 137 0  48 137 0  49 137 0  50 137 0  51 137 0  52 137 0  53 137 0  54 136 0  54 137 0  55 136 0  55 137 0  56 136 0  56 137 0  57 136 0  57 137 0  5
[...]
<PointData  Vectors="f_85"> 
<DataArray  type="Float64"  Name="f_85"  NumberOfComponents="3" format="ascii">0.0000000000000000e+00 0.0000000000000000e+00 0.0000000000000000e+00  0.0000000000000000e+00 0.0000000000000000e+00 0.0000000000000000e+00  3.9675573971654302e+01 2.8082199688000081e+01 0.0000000000000000e+00  3.9793912119925210e+01 2.7633366164040208e+01 0.0000000000000000e+00  0.0000000000000000e+00 0.0000000000000000e+00 0.0000000000000000e+00  7.9580943574522820e+01 5.4800991114542455e+01 0.0000000000000000e+00  3.9909131183521204e+01 2.7178949417167789e+01 0.0000000000000000e+00  0.0000000000000000e+00 0.0000000000000000e+00 0.0000000000000000e+00  7.9811357523318605e+01 5.3900876297712969e+01 0.0000000000000000e+00  1.1935421408102974e+02 8.1508410523875824e+01 0.0000000000000000e+00  1.1969977456055487e+02 8.0171192972407482e+01 0.0000000000000000e+00  1.5956747860610915e+02 1.0599526472511971e+02 0.0000000000000000e+00  4.0021255340838486e+01 2.6719073694074549e+01 0.0000000000000000e+00  0.0000000000000000e+00 0.0000000000000000e+00 0.0000000000000000e+00  8.0035582274637193e+01 5.2989890173890750e+01 0.0000000000000000e+00  1.2003605278152112e+02 7.8817738830077928e+01 0.0000000000000000e+00  1.6001573961588909e+02 1.0420786293523058e+02 0.0000000000000000e+00  1.9940756712529449e+02 1.3137840938843883e+02 0.0000000000000000e+00  1.9996771669341209e+02 1.2916545925953838e+02 0.0000000000000000e+00  2.3988505947786481e+02 1.5369567768430176e+02 0.0000000000000000e+00  4.0130308155193013e+01 2.6253862843769170e+01 0.0000000000000000e+00  0.0000000000000000e+00 0.0000000000000000e+00 0.0000000000000000e+00  8.0253664952832253e+01 5.2068279532227024e+01 0.0000000000000000e+00  1.2036311942476247e+02 7.7448416897312455e+01 0.0000000000000000e+00  1.6045172138157074e+02 1.0239939658471576e+02 0.0000000000000000e+00  2.0051252180182095e+02 1.2692629468871201e+02 0.0000000000000000e+00  2.4053857322112438e+02 1.5103414138484771e+02 0.0000000000000000e+00  2.7976084536773573e+02 1.7780362081412773e+02 0.0000000000000000e+00  2.8052293012099170e+02 1.7472792056123686e+02 0.0000000000000000e+00  3.1958815408255953e+02 2.0149434358859392e+02 0.0000000000000000e+00  3.2045864931741181e+02 1.9801256944921442e+02 0.0000000000000000e+00  3.6033879034910439e+02 2.2089297825408269e+02 0.0000000000000000e+00  4.0236312577098801e+01 2.5783440337533676e+01 0.0000000000000000e+00  0.0000000000000000e+00 0.0000000000000000e+00 0.0000000000000000e+00  8.0465651456697984e+01 5.1136290402694314e+01 0.0000000000000000e+00  1.2068104333288498e+02 7.6063594830987682e+01 0.0000000000000000e+00  1.6087551568286719e+02 1.0057035400636661e+02 0.0000000000000000e+00  2.0104209715839770e+02 1.2466152371450480e+02 0.0000000000000000e+00  2.4117381797703919e+02 1.4834201479389870e+02 0.0000000000000000e+00  2.8126371031321236e+02 1.7161669278551628e+02 0.0000000000000000e+00  3.2130480868897615e+02 1.9449037758170263e+02 0.0000000000000000e+00  3.6129015036448556e+02 2.1696784307504299e+02 0.0000000000000000e+00  4.0121277572807315e+02 2.3905381680787212e+02 0.0000000000000000e+00  4.0339290946501698e+01 2.5307929288069452e+01 0.0000000000000000e+00  0.0000000000000000e+00 0.0000000000000000e+00 0.0000000000000000e+00  8.0671586463937615e+01 5.0194168094427148e+01 0.0000000000000000e+00  1.2098989151697133e+02 7.4663639201975585e+01 0.0000000000000000e+00  1.6128721185767199e+02 9.8721222079656428e+01 0.0000000000000000e+00  2.0155655441908459e+02 1.2237175255344003e+02 0.0000000000000000e+00  2.4179092770864116e+02 1.4562002247512419e+02 0.0000000000000000e+00  2.8198334220135990e+02 1.6847077938962514e+02 0.0000000000000000e+00  3.2212681073277940e+02 1.9092872620143496e+02 0.0000000000000000e+00  3.6221434889157587e+02 2.1299852084091270e+02 0.0000000000000000e+00  4.0223897541180986e+02 2.3468477593106232e+02 0.0000000000000000e+00  4.4219371256475205e+02 2.5599205845544003e+02 0.0000000000000000e+00  4.0439264994967893e+01 2.4827452467873364e+01 0.0000000000000000e+00  0.0000000000000000e+00 0.0000000000000000e+00 0.0000000000000000e+00  8.0871513435541132e+01 4.9242157232525656e+01 0.0000000000000000e+00  1.2128972916314993e+02 7.3248915550387494e+01 0.0000000000000000e+00  1.6168689681082154e+02 9.6852486304399918e+01 0.0000000000000000e+00  2.0205600219884855e+02 1.2005758569203111e+02 0.0000000000000000e+00  2.4239003273030016e+02 1.4286888691108953e+02 0.0000000000000000e+00  2.8268197778632435e+02 1.6529101984398145e+02 0.0000000000000000e+00  3.2292482912119010e+02 1.8732857074105570e+02 0.0000000000000000e+00  3.6311158125701581e+02 2.0898608190366696e+02 0.0000000000000000e+00  4.0323523187813419e+02 2.3026805136758077e+02 0.0000000000000000e+00  4.4328878222504198e+02 2.5117893258733085e+02 0.0000000000000000e+00  4.8207158655023181e+02 2.7692488942781915e+02 0.0000000000000000e+00  4.8326523748787935e+02 2.7172313412212475e+02 0.0000000000000000e+00  5.2186562788746357e+02 2.9748774356422376e+02 0.0000000000000000e+00  5.2315760719939567e+02 2.9190501932388207e+02 0.0000000000000000e+00  5.6156887180529088e+02 3.1768504895792597e+02 0.0000000000000000e+00  5.6295890562734223e+02 3.1172890602796872e+02 0.0000000000000000e+00  6.0266215216624698e+02 3.3119906624717834e+02 0.0000000000000000e+00  4.0536255847826212e+01 2.4342132326882584e+01 0.0000000000000000e+00  0.0000000000000000e+00 0.0000000000000000e+00 0.0000000000000000e+00  8.1065474620070859e+01 4.8280501793398848e+01 0.0000000000000000e+00  1.2158061963902483e+02 7.1819788438633026e+01 0.0000000000000000e+00  1.6207465502267237e+02 9.4964630871508803e+01 0.0000000000000000e+00  2.0254054608240909e+02 1.1771962597517934e+02 0.0000000000000000e+00  2.4297125972060547e+02 1.4008932860920552e+02 0.0000000000000000e+00  2.8335976482796508e+02 1.6207825131013976e+02 0.0000000000000000e+00  3.2369903268062529e+02 1.8369086399112379e+02 0.0000000000000000e+00  3.6398203733695021e+02 2.0493159364110289e+02 0.0000000000000000e+00  4.0420175603396524e+02 2.2580482402424738e+02 0.0000000000000000e+00  4.4435116958338097e+02 2.4631489538016200e+02 0.0000000000000000e+00  4.8442326276715772e+02 2.6646610412545135e+02 0.0000000000000000e+00  5.2441102473255933e+02 2.8626270255719533e+02 0.0000000000000000e+00  5.6430744938664668e+02 3.0570889855887265e+02 0.0000000000000000e+00  6.0410553579016050e+02 3.2480885530925622e+02 0.0000000000000000e+00  6.4226037172851966e+02 3.5031972586948910e+02 0.0000000000000000e+00  6.4379828855074516e+02 3.4356669099478330e+02 0.0000000000000000e+00  6.8174659513483675e+02 3.6909506436010622e+02 0.0000000000000000e+00  6.8337871821546412e+02 3.6198647852588840e+02 0.0000000000000000e+00  7.2283984166255732e+02 3.8007224525776365e+02 0.0000000000000000e+00  4.0630284026263595e+01 2.3852091009424615e+01 0.0000000000000000e+00  0.0000000000000000e+00 0.0000000000000000e+00 0.0000000000000000e+00  8.1253511057852918e+01 4.7309445138720676e+01 0.0000000000000000e+00  1.2186262449996538e+02 7.0376621502403452e+01 0.0000000000000000e+00  1.6245056855749084e+02 9.3058138730989555e+01 0.0000000000000000e+00  2.0301028863473093e+02 1.1535847469113838e+02 0.0000000000000000e+00  2.4353473173496670e+02 1.3728206620358009e+02 0.0000000000000000e+00  2.8401684685982298e+02 1.5883330875941473e+02 0.0000000000000000e+00  3.2444958540838013e+02 1.8001655623536325e+02 0.0000000000000000e+00  3.6482590157598213e+02 2.0083612060853997e+02 0.0000000000000000e+00  4.0513875275269095e+02 2.2129627167131036e+02 0.0000000000000000e+00  4.4538109992133781e+02 2.4140123674678492e+02 0.0000000000000000e+00  4.8554590805512038e+02 2.6115520040548995e+02 0.0000000000000000e+00  5.2562614651469858e+02 2.8056230418374167e+02 0.0000000000000000e+00  5.6561478944473583e+02 2.9962664630423694e+02 0.0000000000000000e+00  6.0550481616984325e+02 3.1835228139935703e+02 0.0000000000000000e+00  6.4528921158986952e+02 3.3674322023766598e+02 0.0000000000000000e+00  6.8496096657449800e+02 3.5480342945406687e+02 0.0000000000000000e+00  7.2451307835709417e+02 3.7253683128405987e+02 0.0000000000000000e+00  7.6217468249239516e+02 3.9782797271599384e+02 0.0000000000000000e+00  7.6393855092776278e+02 3.8994730330252793e+02 0.0000000000000000e+00  8.0323039542556421e+02 4.0703867816745606e+02 0.0000000000000000e+00  4.0721369449372702e+01 2.3357450370507223e+01 0.0000000000000000e+00  0.0000000000000000e+00 0.0000000000000000e+00 0.0000000000000000e+00  8.1435662585073544e+01 4.6329230048067828e+01 0.0000000000000000e+00  1.2213580349525219e+02 6.8919777499682624e+01 0.0000000000000000e+00  1.6281471707165133e+02 9.1133491657319581e+01 0.0000000000000000e+00  2.0346532941127816e+02 1.1297473165321675e+02 0.0000000000000000e+00  2.4408056821792630e+02 1.3444781655297365e+02 0.0000000000000000e+00  2.8465336320349746e+02 1.5555702508698792e+02 0.0000000000000000e+00  3.2517664648907453e+02 1.7630659538078658e+02 0.0000000000000000e+00  3.6564335300569451e+02 1.9670072468479555e+02 0.0000000000000000e+00  4.0604642089477426e+02 2.1674356910408130e+02 0.0000000000000000e+00  4.4637879190813783e+02 2.3643924332858947e+02 0.0000000000000000e+00  4.8663341180759716e+02 2.5579182036439366e+02 0.0000000000000000e+00  5.2680323076403943e+02 2.7480533126645651e+02 0.0000000000000000e+00  5.6688120375596645e+02 2.9348376487338840e+02 0.0000000000000000e+00  6.0686029096744664e+02 3.1183106754468093e+02 0.0000000000000000e+00  6.4673345818542509e+02 3.2985114290086881e+02 0.0000000000000000e+00  6.8649367719634563e+02 3.4754785156706549e+02 0.0000000000000000e+00  7.2613392618204091e+02 3.6492501092029323e+02 0.0000000000000000e+00  7.6564719011484010e+02 3.8198639484101420e+02 0.0000000000000000e+00  8.0502646115185098e+02 3.9873573346925212e+02 0.0000000000000000e+00  8.4238163052984476e+02 4.2381474336896702e+02 0.0000000000000000e+00  8.4426473902836790e+02 4.1517671296566726e+02 0.0000000000000000e+00  8.8335503145036398e+02 4.3131297527793458e+02 0.0000000000000000e+00  4.0809531436151183e+01 2.2858331991481425e+01 0.0000000000000000e+00  0.0000000000000000e+00 0.0000000000000000e+00 0.0000000000000000e+00  8.1611967837778053e+01 4.5340098750305771e+01 0.0000000000000000e+00  1.2240021457407769e+02 6.7449618357884589e+01 0.0000000000000000e+00  1.6316717782164073e+02 8.9191170312334421e+01 0.0000000000000000e+00  2.0390576496802512e+02 1.1056899527838026e+02 0.0000000000000000e+00  2.4460888501518173e+02 1.3158729483505485e+02 0.0000000000000000e+00  2.8526944898268397e+02 1.5225023122172166e+02 0.0000000000000000e+00  3.2588037031071059e+02 1.7256192708294461e+02 0.0000000000000000e+00  3.6643456526273479e+02 1.9252646521271930e+02 0.0000000000000000e+00  4.0692495332786933e+02 2.1214788829857471e+02 0.0000000000000000e+00  4.4734445762282041e+02 2.3143019866604277e+02 0.0000000000000000e+00  4.8768600529340091e+02 2.5037735802398404e+02 0.0000000000000000e+00  5.2794252791555641e+02 2.6899328721124721e+02 0.0000000000000000e+00  5.6810696189585474e+02 2.8728186594512437e+02 0.0000000000000000e+00  6.0817224887139241e+02 3.0524693257205422e+02 0.0000000000000000e+00  6.4813133610907164e+02 3.2289228382100777e+02 0.0000000000000000e+00  6.8797717690419972e+02 3.4022167455997828e+02 0.0000000000000000e+00  7.2770273097836525e+02 3.5723881755597779e+02 0.0000000000000000e+00  7.6730096487654805e+02 3.7394738323892813e+02 0.0000000000000000e+00  8.0676485236340864e+02 3.9035099946981569e+02 0.0000000000000000e+00  8.4608737481872629e+02 4.0645325131346021e+02 0.0000000000000000e+00  8.8526152163192830e+02 4.2225768081622851e+02 0.0000000000000000e+00  9.2428029059567359e+02 4.3776778678900615e+02 0.0000000000000000e+00  4.0894788707451497e+01 2.2354857195108778e+01 0.0000000000000000e+00  0.0000000000000000e+00 0.0000000000000000e+00 0.0000000000000000e+00  8.1782464255771444e+01 4.4342292953785289e+01 0.0000000000000000e+00  1.2265591389139892e+02 6.5966505219211641e+01 0.0000000000000000e+00  1.6350802567186562e+02 8.7231654305749373e+01 0.0000000000000000e+00  2.0433168887122085e+02 1.0814186266291121e+02 0.0000000000000000e+00  2.4511979438531068e+02 1.2870121463713988e+02 0.0000000000000000e+00  2.8586523513686365e+02 1.4891375623189546e+02 0.0000000000000000e+00  3.2656090648033347e+02 1.6878349486654693e+02 0.0000000000000000e+00  3.6719970660645214e+02 1.8831439913455847e+02 0.0000000000000000e+00  4.0777453694644356e+02 2.0751039856145172e+02 0.0000000000000000e+00  4.4827830257585265e+02 2.2637538336301884e+02 0.0000000000000000e+00  4.8870391261793918e+02 2.4491320420424856e+02 0.0000000000000000e+00  5.2904428064659214e+02 2.6312767195942001e+02 0.0000000000000000e+00  5.6929232508871507e+02 2.8102255747380389e+02 0.0000000000000000e+00  6.0944096962603669e+02 2.9860159132739989e+02 0.0000000000000000e+00  6.4948314359630263e+02 3.1586846360112594e+02 0.0000000000000000e+00  6.8941178239379724e+02 3.3282682364585827e+02 0.0000000000000000e+00  7.2921982786915623e+02 3.4948027985470776e+02 0.0000000000000000e+00  7.6890022872842030e+02 3.6583239943890084e+02 0.0000000000000000e+00  8.0844594093128660e+02 3.8188670820761848e+02 0.0000000000000000e+00  8.4784992808851484e+02 3.9764669035212569e+02 0.0000000000000000e+00  8.8710516185844335e+02 4.1311578823450941e+02 0.0000000000000000e+00  9.2620462234257320e+02 4.2829740218132372e+02 0.0000000000000000e+00  9.6313668829844573e+02 4.5298702459571825e+02 0.0000000000000000e+00  9.6514129848017649e+02 4.4319489028242066e+02 0.0000000000000000e+00  1.0018237305161142e+03 4.6791880594767173e+02 0.0000000000000000e+00  1.0039081884418885e+03 4.5781156819522761e+02 0.0000000000000000e+00  1.0403344426024189e+03 4.8256649870396933e+02 0.0000000000000000e+00  1.0424983000222412e+03 4.7215070895471143e+02 0.0000000000000000e+00  1.0786618598783407e+03 4.9693342667822418e+02 0.0000000000000000e+00  1.0809046510311002e+03 4.8621554278925061e+02 0.0000000000000000e+00  1.1167990280203132e+03 5.1102286945178690e+02 0.0000000000000000e+00  1.1191202696839614e+03 5.0000925694261832e+02 0.0000000000000000e+00  1.1571381949910744e+03 5.1353499550225331e+02 0.0000000000000000e+00  4.0977159387880853e+01 2.1847147060063147e+01 0.0000000000000000e+00  0.0000000000000000e+00 0.0000000000000000e+00 0.0000000000000000e+00  8.1947188086418990e+01 4.3336053875409711e+01 0.0000000000000000e+00  1.2290295581364011e+02 6.4470798484322088e+01 0.0000000000000000e+00  1.6383733310225870e+02 8.5255422253434972e+01 0.0000000000000000e+00  2.0474319170690291e+02 1.0569392965527000e+02 0.0000000000000000e+00  2.4561340501119560e+02 1.2579028804359280e+02 0.0000000000000000e+00  2.8644084843464412e+02 1.4554842742706811e+02 0.0000000000000000e+00  3.2721839983929215e+02 1.6497224024168406e+02 0.0000000000000000e+00  3.6793893993608390e+02 1.8406558112241061e+02 0.0000000000000000e+00  4.0859535269089560e+02 2.0283226667454966e+02 0.0000000000000000e+00  4.4918052573018605e+02 2.2127607524522693e+02 0.0000000000000000e+00  4.8968735074622049e+02 2.3940074669546607e+02 0.0000000000000000e+00  5.3010872390181930e+02 2.5720998217327525e+02 0.0000000000000000e+00  5.7043754623458767e+02 2.7470744388816598e+02 0.0000000000000000e+00  6.1066672406057717e+02 2.9189675488751021e+02 0.0000000000000000e+00  6.5078916937733766e+02 3.0878149883513260e+02 0.0000000000000000e+00  6.9079780026631147e+02 3.2536521979251592e+02 0.0000000000000000e+00  7.3068554129452411e+02 3.4165142200298857e+02 0.0000000000000000e+00  7.7044532391553287e+02 3.5764356967924374e+02 0.0000000000000000e+00  8.1007008686957965e+02 3.7334508679452665e+02 0.0000000000000000e+00  8.4955277658291629e+02 3.8875935687780935e+02 0.0000000000000000e+00  8.8888634756624992e+02 4.0388972281325442e+02 0.0000000000000000e+00  9.2806376281227062e+02 4.1873948664425353e+02 0.0000000000000000e+00  9.6707799419222056e+02 4.3331190938230816e+02 0.0000000000000000e+00  1.0059220228514605e+03 4.4761021082100154e+02 0.0000000000000000e+00  1.0445888396039961e+03 4.6163756935529256e+02 0.0000000000000000e+00  1.0830714453259227e+03 4.7539712180634342e+02 0.0000000000000000e+00  1.1213628513477495e+03 4.8889196325207729e+02 0.0000000000000000e+00  1.1594560798455693e+03 5.0212514686363613e+02 0.0000000000000000e+00  1.1973441642310299e+03 5.1509968374789935e+02 0.0000000000000000e+00  4.1056661007650391e+01 2.1335322434895314e+01 0.0000000000000000e+00  0.0000000000000000e+00 0.0000000000000000e+00 0.0000000000000000e+00  8.2106174388345238e+01 4.2321622268629518e+01 0.0000000000000000e+00  1.2314139292424302e+02 6.2962857854393256e+01 0.0000000000000000e+00  1.6415517021568303e+02 8.3262951833559669e+01 0.0000000000000000e+00  2.0514036109015768e+02 1.0322579092630227e+02 0.0000000000000000e+00  2.4608982201114338e+02 1.2285522572005442e+02 0.0000000000000000e+00  2.8699641148674272e+02 1.4215507045626129e+02 0.0000000000000000e+00  3.2785299047809161e+02 1.6112910281587185e+02 0.0000000000000000e+00  3.6865242280748322e+02 1.7978106370401156e+02 0.0000000000000000e+00  4.0938757556616417e+02 1.9811465703427064e+02 0.0000000000000000e+00  4.5005131952175435e+02 2.1613354951303435e+02 0.0000000000000000e+00  4.9063652952524671e+02 2.3384137042427466e+02 0.0000000000000000e+00  5.3113608491753860e+02 2.5124171141521029e+02 0.0000000000000000e+00  5.7154286993545031e+02 2.6833812628323568e+02 0.0000000000000000e+00  6.1184977411718626e+02 2.8513413076450371e+02 0.0000000000000000e+00  6.5204969270719266e+02 3.0163320232453947e+02 0.0000000000000000e+00  6.9213552706036774e+02 3.1783877995124544e+02 0.0000000000000000e+00  7.3210018504557877e+02 3.3375426395064829e+02 0.0000000000000000e+00  7.7193658144844937e+02 3.4938301574572012e+02 0.0000000000000000e+00  8.1163763837336023e+02 3.6472835767859635e+02 0.0000000000000000e+00  8.5119628564463528e+02 3.7979357281649209e+02 0.0000000000000000e+00  8.9060546120686251e+02 3.9458190476160667e+02 0.0000000000000000e+00  9.2985811152430983e+02 4.0909655746528898e+02 0.0000000000000000e+00  9.6894719197939605e+02 4.2334069504671788e+02 0.0000000000000000e+00  1.0078656672701752e+03 4.3731744161633907e+02 0.0000000000000000e+00  1.0466065118067995e+03 4.5102988110427481e+02 0.0000000000000000e+00  1.0851627101069103e+03 4.6448105709391456e+02 0.0000000000000000e+00  1.1235272571899363e+03 4.7767397266087249e+02 0.0000000000000000e+00  1.1616931589702467e+03 4.9061159021747585e+02 0.0000000000000000e+00  1.1996534326491276e+03 5.0329683136294108e+02 0.0000000000000000e+00  1.2350201495400740e+03 5.2781854279619733e+02 0.0000000000000000e+00  1.2374011071055515e+03 5.1573257673936564e+02 0.0000000000000000e+00  1.2724770928204152e+03 5.4028465053933883e+02 0.0000000000000000e+00  1.2749292232856974e+03 5.2792166589365229e+02 0.0000000000000000e+00  1.3122308345911899e+03 5.3986689714546389e+02 0.0000000000000000e+00  4.1133310504372936e+01 2.0819503951487789e+01 0.0000000000000000e+00  0.0000000000000000e+00 0.0000000000000000e+00 0.0000000000000000e+00  8.2259457035030181e+01 4.1299238450418990e+01 0.0000000000000000e+00  1.2337127602906288e+02 6.1443042371660937e+01 0.0000000000000000e+00  1.6446160474512945e+02 8.1254719840707310e+01 0.0000000000000000e+00  2.0552328167412250e+02 1.0073804003692422e+02 0.0000000000000000e+00  2.4654914694969648e+02 1.1989673699466056e+02 0.0000000000000000e+00  2.8753204275860958e+02 1.3873450940265005e+02 0.0000000000000000e+00  3.2846481375083272e+02 1.5725502040212970e+02 0.0000000000000000e+00  3.6934030744938065e+02 1.7546189738409237e+02 0.0000000000000000e+00  4.1015137465981877e+02 1.9335873178608600e+02 0.0000000000000000e+00  4.5089086987939942e+02 2.1094907888896441e+02 0.0000000000000000e+00  4.9155165170578323e+02 2.2823645761398703e+02 0.0000000000000000e+00  5.3212658324529923e+02 2.4522435032065493e+02 0.0000000000000000e+00  5.7260853252070012e+02 2.6191620260566208e+02 0.0000000000000000e+00  6.1299037287836541e+02 2.7831542310332901e+02 0.0000000000000000e+00  6.5326498339491263e+02 2.9442538328787560e+02 0.0000000000000000e+00  6.9342524928