<?xml version="1.0"?>
<VTKFile type="UnstructuredGrid"  version="0.1"  >
<UnstructuredGrid>
<Piece  NumberOfPoints="7593" NumberOfCells="14783">
<Points>
<DataArray  type="Float64"  NumberOfComponents="3"  format="ascii">59 137 0  60 137 0  60 138 0  59 138 0  61 138 0  60 139 0  59 139 0  61 139 0  62 139 0  60 140 0  61 140 0  62 140 0  63 140 0  66 139 0  67 139 0  67 140 0  66 140 0  68 139 0  68 140 0  69 139 0  69 140 0  70 140 0  61 141 0  60 141 0  62 141 0  63 141 0  64 141 0  67 141 0  66 141 0  68 141 0  69 141 0  70 141 0  71 140 0  71 141 0  72 140 0  72 141 0  73 140 0  73 141 0  74 141 0  78 140 0  79 140 0  79 141 0  78 141 0  80 140 0  80 141 0  81 140 0  81 141 0  82 140 0  82 141 0  83 140 0  83 141 0  84 141 0  61 142 0  60 142 0  62 142 0  63 142 0  64 142 0  65 141 0  65 142 0  66 142 0  67 142 0  68 142 0  69 142 0  70 142 0  71 142 0  72 142 0  73 142 0  74 142 0  75 142 0  79 142 0  78 142 0  80 142 0  81 142 0  82 142 0  83 142 0  84 142 0  85 141 0  85 142 0  86 141 0  86 142 0  87 142 0  59 142 0  60 143 0  59 143 0  61 143 0  62 143 0  63 143 0  64 143 0  65 143 0  66 143 0  67 143 0  68 143 0  69 143 0  70 143 0  71 143 0  72 143 0  73 143 0  74 143 0  75 143 0  76 142 0  76 143 0  77 142 0  77 143 0  78 143 0  79 143 0  80 143 0  81 143 0  82 143 0  83 143 0  84 143 0  85 143 0  86 143 0  87 143 0  88 142 0  88 143 0  89 143 0  91 142 0  92 142 0  92 143 0  91 143 0  93 142 0  93 143 0  94 142 0  94 143 0  95 142 0  95 143 0  96 142 0  96 143 0  97 143 0  60 144 0  59 144 0  61 144 0  62 144 0  63 144 0  64 144 0  65 144 0  66 144 0  67 144 0  68 144 0  69 144 0  70 144 0  71 144 0  72 144 0  73 144 0  74 144 0  75 144 0  76 144 0  77 144 0  78 144 0  79 144 0  80 144 0  81 144 0  82 144 0  83 144 0  84 144 0  85 144 0  86 144 0  87 144 0  88 144 0  89 144 0  90 143 0  90 144 0  91 144 0  92 144 0  93 144 0  94 144 0  95 144 0  96 144 0  97 144 0  98 144 0  60 145 0  59 145 0  61 145 0  62 145 0  63 145 0  64 145 0  65 145 0  66 145 0  67 145 0  68 145 0  69 145 0  70 145 0  71 145 0  72 145 0  73 145 0  74 145 0  75 145 0  76 145 0  77 145 0  78 145 0  79 145 0  80 145 0  81 145 0  82 145 0  83 145 0  84 145 0  85 145 0  86 145 0  87 145 0  88 145 0  89 145 0  90 145 0  91 145 0  92 145 0  93 145 0  94 145 0  95 145 0  96 145 0  97 145 0  98 145 0  99 144 0  99 145 0  100 145 0  60 146 0  59 146 0  61 146 0  62 146 0  63 146 0  64 146 0  65 146 0  66 146 0  67 146 0  68 146 0  69 146 0  70 146 0  71 146 0  72 146 0  73 146 0  74 146 0  75 146 0  76 146 0  77 146 0  78 146 0  79 146 0  80 146 0  81 146 0  82 146 0  83 146 0  84 146 0  85 146 0  86 146 0  87 146 0  88 146 0  89 146 0  90 146 0  91 146 0  92 146 0  93 146 0  94 146 0  95 146 0  96 146 0  97 146 0  98 146 0  99 146 0  100 146 0  101 146 0  60 147 0  59 147 0  61 147 0  62 147 0  63 147 0  64 147 0  65 147 0  66 147 0  67 147 0  68 147 0  69 147 0  70 147 0  71 147 0  72 147 0  73 147 0  74 147 0  75 147 0  76 147 0  77 147 0  78 147 0  79 147 0  80 147 0  81 147 0  82 147 0  83 147 0  84 147 0  85 147 0  86 147 0  87 147 0  88 147 0  89 147 0  90 147 0  91 147 0  92 147 0  93 147 0  94 147 0  95 147 0  96 147 0  97 147 0  98 147 0  99 147 0  100 147 0  101 147 0  102 146 0  102 147 0  103 147 0  60 148 0  59 148 0  61 148 0  62 148 0  63 148 0  64 148 0  65 148 0  66 148 0  67 148 0  68 148 0  69 148 0  70 148 0  71 148 0  72 148 0  73 148 0  74 148 0  75 148 0  76 148 0  77 148 0  78 148 0  79 148 0  80 148 0  81 148 0  82 148 0  83 148 0  84 148 0  85 148 0  86 148 0  87 148 0  88 148 0  89 148 0  90 148 0  91 148 0  92 148 0  93 148 0  94 148 0  95 148 0  96 148 0  97 148 0  98 148 0  99 148 0  100 148 0  101 148 0  102 148 0  103 148 0  104 147 0  104 148 0  105 148 0  60 149 0  59 149 0  61 149 0  62 149 0  63 149 0  64 149 0  65 149 0  66 149 0  67 149 0  68 149 0  69 149 0  70 149 0  71 149 0  72 149 0  73 149 0  74 149 0  75 149 0  76 149 0  77 149 0  78 149 0  79 149 0  80 149 0  81 149 0  82 149 0  83 149 0  84 149 0  85 149 0  86 149 0  87 149 0  88 149 0  89 149 0  90 149 0  91 149 0  92 149 0  93 149 0  94 149 0  95 149 0  96 149 0  97 149 0  98 149 0  99 149 0  100 149 0  101 149 0  102 149 0  103 149 0  104 149 0  105 149 0  106 149 0  60 150 0  59 150 0  61 150 0  62 150 0  63 150 0  64 150 0  65 150 0  66 150 0  67 150 0  68 150 0  69 150 0  70 150 0  71 150 0  72 150 0  73 150 0  74 150 0  75 150 0  76 150 0  77 150 0  78 150 0  79 150 0  80 150 0  81 150 0  82 150 0  83 150 0  84 150 0  85 150 0  86 150 0  87 150 0  88 150 0  89 150 0  90 150 0  91 150 0  92 150 0  93 150 0  94 150 0  95 150 0  96 150 0  97 150 0  98 150 0  99 150 0  100 150 0  101 150 0  102 150 0  103 150 0  104 150 0  105 150 0  106 150 0  107 149 0  107 150 0  108 150 0  60 151 0  61 151 0  62 151 0  63 151 0  64 151 0  65 151 0  66 151 0  67 151 0  68 151 0  69 151 0  70 151 0  71 151 0  72 151 0  73 151 0  74 151 0  75 151 0  76 151 0  77 151 0  78 151 0  79 151 0  80 151 0  81 151 0  82 151 0  83 151 0  84 151 0  85 151 0  86 151 0  87 151 0  88 151 0  89 151 0  90 151 0  91 151 0  92 151 0  93 151 0  94 151 0  95 151 0  96 151 0  97 151 0  98 151 0  99 151 0  100 151 0  101 151 0  102 151 0  103 151 0  104 151 0  105 151 0  106 151 0  107 151 0  108 151 0  109 151 0  61 152 0  62 152 0  63 152 0  64 152 0  65 152 0  66 152 0  67 152 0  68 152 0  69 152 0  70 152 0  71 152 0  72 152 0  73 152 0  74 152 0  75 152 0  76 152 0  77 152 0  78 152 0  79 152 0  80 152 0  81 152 0  82 152 0  83 152 0  84 152 0  85 152 0  86 152 0  87 152 0  88 152 0  89 152 0  90 152 0  91 152 0  92 152 0  93 152 0  94 152 0  95 152 0  96 152 0  97 152 0  98 152 0  99 152 0  100 152 0  101 152 0  102 152 0  103 152 0  104 152 0  105 152 0  106 152 0  107 152 0  108 152 0  109 152 0  110 152 0  62 153 0  63 153 0  64 153 0  65 153 0  66 153 0  67 153 0  68 153 0  69 153 0  70 153 0  71 153 0  72 153 0  73 153 0  74 153 0  75 153 0  76 153 0  77 153 0  78 153 0  79 153 0  80 153 0  81 153 0  82 153 0  83 153 0  84 153 0  85 153 0  86 153 0  87 153 0  88 153 0  89 153 0  90 153 0  91 153 0  92 153 0  93 153 0  94 153 0  95 153 0  96 153 0  97 153 0  98 153 0  99 153 0  100 153 0  101 153 0  102 153 0  103 153 0  104 153 0  105 153 0  106 153 0  107 153 0  108 153 0  109 153 0  110 153 0  111 153 0  63 154 0  64 154 0  65 154 0  66 154 0  67 154 0  68 154 0  69 154 0  70 154 0  71 154 0  72 154 0  73 154 0  74 154 0  75 154 0  76 154 0  77 154 0  78 154 0  79 154 0  80 154 0  81 154 0  82 154 0  83 154 0  84 154 0  85 154 0  86 154 0  87 154 0  88 154 0  89 154 0  90 154 0  91 154 0  92 154 0  93 154 0  94 154 0  95 154 0  96 154 0  97 154 0  98 154 0  99 154 0  100 154 0  101 154 0  102 154 0  103 154 0  104 154 0  105 154 0  106 154 0  107 154 0  108 154 0  109 154 0  110 154 0  111 154 0  112 154 0  64 155 0  63 155 0  65 155 0  66 155 0  67 155 0  68 155 0  69 155 0  70 155 0  71 155 0  72 155 0  73 155 0  74 155 0  75 155 0  76 155 0  77 155 0  78 155 0  79 155 0  80 155 0  81 155 0  82 155 0  83 155 0  84 155 0  85 155 0  86 155 0  87 155 0  88 155 0  89 155 0  90 155 0  91 155 0  92 155 0  93 155 0  94 155 0  95 155 0  96 155 0  97 155 0  98 155 0  99 155 0  100 155 0  101 155 0  102 155 0  103 155 0  104 155 0  105 155 0  106 155 0  107 155 0  108 155 0  109 155 0  110 155 0  111 155 0  112 155 0  113 154 0  113 155 0  114 155 0  64 156 0  63 156 0  65 156 0  66 156 0  67 156 0  68 156 0  69 156 0  70 156 0  71 156 0  72 156 0  73 156 0  74 156 0  75 156 0  76 156 0  77 156 0  78 156 0  79 156 0  80 156 0  81 156 0  82 156 0  83 156 0  84 156 0  85 156 0  86 156 0  87 156 0  88 156 0  89 156 0  90 156 0  91 156 0  92 156 0  93 156 0  94 156 0  95 156 0  96 156 0  97 156 0  98 156 0  99 156 0  100 156 0  101 156 0  102 156 0  103 156 0  104 156 0  105 156 0  106 156 0  107 156 0  108 156 0  109 156 0  110 156 0  111 156 0  112 156 0  113 156 0  114 156 0  115 155 0  115 156 0  116 155 0  116 156 0  117 155 0  117 156 0  118 156 0  64 157 0  65 157 0  66 157 0  67 157 0  68 157 0  69 157 0  70 157 0  71 157 0  72 157 0  73 157 0  74 157 0  75 157 0  76 157 0  77 157 0  78 157 0  79 157 0  80 157 0  81 157 0  82 157 0  83 157 0  84 157 0  85 157 0  86 157 0  87 157 0  88 157 0  89 157 0  90 157 0  91 157 0  92 157 0  93 157 0  94 157 0  95 157 0  96 157 0  97 157 0  98 157 0  99 157 0  100 157 0  101 157 0  102 157 0  103 157 0  104 157 0  105 157 0  106 157 0  107 157 0  108 157 0  109 157 0  110 157 0  111 157 0  112 157 0  113 157 0  114 157 0  115 157 0  116 157 0  117 157 0  118 157 0  119 156 0  119 157 0  120 157 0  65 158 0  66 158 0  67 158 0  68 158 0  69 158 0  70 158 0  71 158 0  72 158 0  73 158 0  74 158 0  75 158 0  76 158 0  77 158 0  78 158 0  79 158 0  80 158 0  81 158 0  82 158 0  83 158 0  84 158 0  85 158 0  86 158 0  87 158 0  88 158 0  89 158 0  90 158 0  91 158 0  92 158 0  93 158 0  94 158 0  95 158 0  96 158 0  97 158 0  98 158 0  99 158 0  100 158 0  101 158 0  102 158 0  103 158 0  104 158 0  105 158 0  106 158 0  107 158 0  108 158 0  109 158 0  110 158 0  111 158 0  112 158 0  113 158 0  114 158 0  115 158 0  116 158 0  117 158 0  118 158 0  119 158 0  120 158 0  121 157 0  121 158 0  122 158 0  66 159 0  65 159 0  67 159 0  68 159 0  69 159 0  70 159 0  71 159 0  72 159 0  73 159 0  74 159 0  75 159 0  76 159 0  77 159 0  78 159 0  79 159 0  80 159 0  81 159 0  82 159 0  83 159 0  84 159 0  85 159 0  86 159 0  87 159 0  88 159 0  89 159 0  90 159 0  91 159 0  92 159 0  93 159 0  94 159 0  95 159 0  96 159 0  97 159 0  98 159 0  99 159 0  100 159 0  101 159 0  102 159 0  103 159 0  104 159 0  105 159 0  106 159 0  107 159 0  108 159 0  109 159 0  110 159 0  111 159 0  112 159 0  113 159 0  114 159 0  115 159 0  116 159 0  117 159 0  118 159 0  119 159 0  120 159 0  121 159 0  122 159 0  123 158 0  123 159 0  124 159 0  66 160 0  67 160 0  68 160 0  69 160 0  70 160 0  71 160 0  72 160 0  73 160 0  74 160 0  75 160 0  76 160 0  77 160 0  78 160 0  79 160 0  80 160 0  81 160 0  82 160 0  83 160 0  84 160 0  85 160 0  8
[...]
<PointData  Vectors="f_88"> 
<DataArray  type="Float64"  Name="f_88"  NumberOfComponents="3" format="ascii">2.2264665658247964e+03 4.6841182081326860e+02 0.0000000000000000e+00  2.2556483693920227e+03 4.7230885213459317e+02 0.0000000000000000e+00  2.2573690341569741e+03 4.5215634407872409e+02 0.0000000000000000e+00  2.2281665076396544e+03 4.4841649253857577e+02 0.0000000000000000e+00  2.2861460282268804e+03 4.5578944691583911e+02 0.0000000000000000e+00  2.2589505936012806e+03 4.3192094547492536e+02 0.0000000000000000e+00  2.2297290223501882e+03 4.2833905499819485e+02 0.0000000000000000e+00  2.2877462689591443e+03 4.3540079497627664e+02 0.0000000000000000e+00  2.3161094648348731e+03 4.3877931641926557e+02 0.0000000000000000e+00  2.2603934111707604e+03 4.1160777636726959e+02 0.0000000000000000e+00  2.2892061264873228e+03 4.1493365961584010e+02 0.0000000000000000e+00  2.3175860260504587e+03 4.1816289394107190e+02 0.0000000000000000e+00  2.3455265467728673e+03 4.2129612645882486e+02 0.0000000000000000e+00  2.4251066667640580e+03 4.5129370680077704e+02 0.0000000000000000e+00  2.4512096016989703e+03 4.5417560872835941e+02 0.0000000000000000e+00  2.4527644795488732e+03 4.3288135291199575e+02 0.0000000000000000e+00  2.4266465896215436e+03 4.3012601520550663e+02 0.0000000000000000e+00  2.4768410950697753e+03 4.5696005648490933e+02 0.0000000000000000e+00  2.4784105650781498e+03 4.3554365544604468e+02 0.0000000000000000e+00  2.5019947466095327e+03 4.5964762856807471e+02 0.0000000000000000e+00  2.5035784417073537e+03 4.3811346243632698e+02 0.0000000000000000e+00  2.5282617326779459e+03 4.4059129564364770e+02 0.0000000000000000e+00  2.2905259370827057e+03 3.9439320745223006e+02 0.0000000000000000e+00  2.2616978185287244e+03 3.9122195553022942e+02 0.0000000000000000e+00  2.3189209357881791e+03 3.9747250754384510e+02 0.0000000000000000e+00  2.3468762474371938e+03 4.0046045634786736e+02 0.0000000000000000e+00  2.3743853303566193e+03 4.0335763774240985e+02 0.0000000000000000e+00  2.4541701809846586e+03 4.1151016654156030e+02 0.0000000000000000e+00  2.4280387732624640e+03 4.0888195056648578e+02 0.0000000000000000e+00  2.4798294562025021e+03 4.1404978422443452e+02 0.0000000000000000e+00  2.5050101905860215e+03 4.1650130436102882e+02 0.0000000000000000e+00  2.5297060036013936e+03 4.1886521111078605e+02 0.0000000000000000e+00  2.5524540893476355e+03 4.4297765897488085e+02 0.0000000000000000e+00  2.5539105428848607e+03 4.2114197206033782e+02 0.0000000000000000e+00  2.5761491915623787e+03 4.4527303849701366e+02 0.0000000000000000e+00  2.5776174846158988e+03 4.2333203823722488e+02 0.0000000000000000e+00  2.5993407480276778e+03 4.4747790245124236e+02 0.0000000000000000e+00  2.6008205338896964e+03 4.2543584412362173e+02 0.0000000000000000e+00  2.6235134250889851e+03 4.2745380767002024e+02 0.0000000000000000e+00  2.7075272156235133e+03 4.5715963111037649e+02 0.0000000000000000e+00  2.7275670431693443e+03 4.5883023824348442e+02 0.0000000000000000e+00  2.7291083102231055e+03 4.3626946305183708e+02 0.0000000000000000e+00  2.7090591426339561e+03 4.3467501961388609e+02 0.0000000000000000e+00  2.7470601250343707e+03 4.6041310954625106e+02 0.0000000000000000e+00  2.7486103618266825e+03 4.3778022543704213e+02 0.0000000000000000e+00  2.7660004140987594e+03 4.6190857115045333e+02 0.0000000000000000e+00  2.7675592472082908e+03 4.3920760936843152e+02 0.0000000000000000e+00  2.7843818954206095e+03 4.6331693148298115e+02 0.0000000000000000e+00  2.7859489483769735e+03 4.4055190101590324e+02 0.0000000000000000e+00  2.8021985866031896e+03 4.6463848127774980e+02 0.0000000000000000e+00  2.8037734799557752e+03 4.4181337013168235e+02 0.0000000000000000e+00  2.8210268895502695e+03 4.4299227006122641e+02 0.0000000000000000e+00  2.2917060048403764e+03 3.7378460414164903e+02 0.0000000000000000e+00  2.2628641156045715e+03 3.7076860076563844e+02 0.0000000000000000e+00  2.3201145022637616e+03 3.7671336945685459e+02 0.0000000000000000e+00  2.3480830369826917e+03 3.7955545066903267e+02 0.0000000000000000e+00  2.3756050636812192e+03 3.8231138635246015e+02 0.0000000000000000e+00  2.4014416687873363e+03 4.0616461895324517e+02 0.0000000000000000e+00  2.4026740629996307e+03 3.8498169971047207e+02 0.0000000000000000e+00  2.4292835419136336e+03 3.8756689858827406e+02 0.0000000000000000e+00  2.4554270341126276e+03 3.9006747548596866e+02 0.0000000000000000e+00  2.4810981003770839e+03 3.9248390757174747e+02 0.0000000000000000e+00  2.5062903289550723e+03 3.9481665669521129e+02 0.0000000000000000e+00  2.5309973359379724e+03 3.9706616940077316e+02 0.0000000000000000e+00  2.5552127656354251e+03 3.9923287694110286e+02 0.0000000000000000e+00  2.5789302909495436e+03 4.0131719529056971e+02 0.0000000000000000e+00  2.6021436137484484e+03 4.0331952515864265e+02 0.0000000000000000e+00  2.6248464652391749e+03 4.0524025200320733e+02 0.0000000000000000e+00  2.6470326063399834e+03 4.0707974604375795e+02 0.0000000000000000e+00  2.7304863459096123e+03 4.1363226593557931e+02 0.0000000000000000e+00  2.7104288299582463e+03 4.1211430523252494e+02 0.0000000000000000e+00  2.7499964147280107e+03 4.1507061680429194e+02 0.0000000000000000e+00  2.7689529833920851e+03 4.1642963689297051e+02 0.0000000000000000e+00  2.7873500311863531e+03 4.1770959010316136e+02 0.0000000000000000e+00  2.8051815700709644e+03 4.1891072519449312e+02 0.0000000000000000e+00  2.8224416450514382e+03 4.2003327579507277e+02 0.0000000000000000e+00  2.8377032581171270e+03 4.4408883775364643e+02 0.0000000000000000e+00  2.8391243345484472e+03 4.2107746041140598e+02 0.0000000000000000e+00  2.8537967003327931e+03 4.4510329377160781e+02 0.0000000000000000e+00  2.8552237507677301e+03 4.2204348243781305e+02 0.0000000000000000e+00  2.8707340400702146e+03 4.2293153016531556e+02 0.0000000000000000e+00  2.2335954306433368e+03 3.6766478997528117e+02 0.0000000000000000e+00  2.2638925706377909e+03 3.5025282919735730e+02 0.0000000000000000e+00  2.2346115072369125e+03 3.4730961334967941e+02 0.0000000000000000e+00  2.2927466017242459e+03 3.5311301467383601e+02 0.0000000000000000e+00  2.3211670011252054e+03 3.5589069125485418e+02 0.0000000000000000e+00  2.3491471947001733e+03 3.5858636630091166e+02 0.0000000000000000e+00  2.3766806339211871e+03 3.6120053306988945e+02 0.0000000000000000e+00  2.4037607962538013e+03 3.6373367072987179e+02 0.0000000000000000e+00  2.4303811855371282e+03 3.6618624437213327e+02 0.0000000000000000e+00  2.4565353323629638e+03 3.6855870502425603e+02 0.0000000000000000e+00  2.4822167944540420e+03 3.7085148966333844e+02 0.0000000000000000e+00  2.5074191570414478e+03 3.7306502122925849e+02 0.0000000000000000e+00  2.5321360332412246e+03 3.7519970863795561e+02 0.0000000000000000e+00  2.5563610644302325e+03 3.7725594679469418e+02 0.0000000000000000e+00  2.5800879206212821e+03 3.7923411660727152e+02 0.0000000000000000e+00  2.6033103008376056e+03 3.8113458499913486e+02 0.0000000000000000e+00  2.6260219334867020e+03 3.8295770492237131e+02 0.0000000000000000e+00  2.6482165767336151e+03 3.8470381537053623e+02 0.0000000000000000e+00  2.6686958280521535e+03 4.0883836227442578e+02 0.0000000000000000e+00  2.6698880188736880e+03 3.8637324139128486e+02 0.0000000000000000e+00  2.6898299518312947e+03 4.1051644047680247e+02 0.0000000000000000e+00  2.6910300787048600e+03 3.8796629409877272e+02 0.0000000000000000e+00  2.7116366058995632e+03 3.8948327068579465e+02 0.0000000000000000e+00  2.7317014813762612e+03 3.9092445443562633e+02 0.0000000000000000e+00  2.7512186176707141e+03 3.9229011473353938e+02 0.0000000000000000e+00  2.7701819593070236e+03 3.9358050707796025e+02 0.0000000000000000e+00  2.7885854831685228e+03 3.9479587309124139e+02 0.0000000000000000e+00  2.8064231988685892e+03 3.9593644053001907e+02 0.0000000000000000e+00  2.8236891491214410e+03 3.9700242329512878e+02 0.0000000000000000e+00  2.8403774101130030e+03 3.9799402144105454e+02 0.0000000000000000e+00  2.8564820918719029e+03 3.9891142118488608e+02 0.0000000000000000e+00  2.8719973386406991e+03 3.9975479491476210e+02 0.0000000000000000e+00  2.8856493833424256e+03 4.2374177678996574e+02 0.0000000000000000e+00  2.8869173292473847e+03 4.0052430119777637e+02 0.0000000000000000e+00  2.9012362774773001e+03 4.0122008478732880e+02 0.0000000000000000e+00  2.9267680715162728e+03 4.2570721574135143e+02 0.0000000000000000e+00  2.9392461430320477e+03 4.2620768827429498e+02 0.0000000000000000e+00  2.9405295379434547e+03 4.0286633986191760e+02 0.0000000000000000e+00  2.9280480789695889e+03 4.0239099387123542e+02 0.0000000000000000e+00  2.9511007038292105e+03 4.2663099950999907e+02 0.0000000000000000e+00  2.9523871667113822e+03 4.0326840416232091e+02 0.0000000000000000e+00  2.9623261497532972e+03 4.2697723221581333e+02 0.0000000000000000e+00  2.9636153594432603e+03 4.0359726254692850e+02 0.0000000000000000e+00  2.9729169137835993e+03 4.2724645410513921e+02 0.0000000000000000e+00  2.9742085475106064e+03 4.0385297700800436e+02 0.0000000000000000e+00  2.9828674664090549e+03 4.2743871784062577e+02 0.0000000000000000e+00  2.9841611998636226e+03 4.0403559575861044e+02 0.0000000000000000e+00  2.9934678234093717e+03 4.0414515323496130e+02 0.0000000000000000e+00  2.2647834202173763e+03 3.2967975756385482e+02 0.0000000000000000e+00  2.2354916355396340e+03 3.2689767226221471e+02 0.0000000000000000e+00  2.2936479676073909e+03 3.3238360366506316e+02 0.0000000000000000e+00  2.3220786754940482e+03 3.3500968415139380e+02 0.0000000000000000e+00  2.3500689669231906e+03 3.3755845977344973e+02 0.0000000000000000e+00  2.3776122905848033e+03 3.4003037845989383e+02 0.0000000000000000e+00  2.4047021211947272e+03 3.4242587533057167e+02 0.0000000000000000e+00  2.4313319598754301e+03 3.4474537270971041e+02 0.0000000000000000e+00  2.4574953345358867e+03 3.4698928013916327e+02 0.0000000000000000e+00  2.4831858002505810e+03 3.4915799439167142e+02 0.0000000000000000e+00  2.5083969396376892e+03 3.5125189948410809e+02 0.0000000000000000e+00  2.5331223632364713e+03 3.5327136669067607e+02 0.0000000000000000e+00  2.5573557098839060e+03 3.5521675455602605e+02 0.0000000000000000e+00  2.5810906470906302e+03 3.5708840890826690e+02 0.0000000000000000e+00  2.6043208714162147e+03 3.5888666287183344e+02 0.0000000000000000e+00  2.6270401088438339e+03 3.6061183688018627e+02 0.0000000000000000e+00  2.6492421151543672e+03 3.6226423868831040e+02 0.0000000000000000e+00  2.6709206763000016e+03 3.6384416338498374e+02 0.0000000000000000e+00  2.6920696087773736e+03 3.6535189340478820e+02 0.0000000000000000e+00  2.7126827600003267e+03 3.6678769853983420e+02 0.0000000000000000e+00  2.7327540086723275e+03 3.6815183595117117e+02 0.0000000000000000e+00  2.7522772651586097e+03 3.6944455017985837e+02 0.0000000000000000e+00  2.7712464718581100e+03 3.7066607315766896e+02 0.0000000000000000e+00  2.7896556035752633e+03 3.7181662421740458e+02 0.0000000000000000e+00  2.8074986678917257e+03 3.7289641010279234e+02 0.0000000000000000e+00  2.8247697055381009e+03 3.7390562497794798e+02 0.0000000000000000e+00  2.8414627907657255e+03 3.7484445043637658e+02 0.0000000000000000e+00  2.8575720317186183e+03 3.7571305550949410e+02 0.0000000000000000e+00  2.8730915708056505e+03 3.7651159667464964e+02 0.0000000000000000e+00  2.8880155850730193e+03 3.7724021786262847e+02 0.0000000000000000e+00  2.9023382865771168e+03 3.7789905046461973e+02 0.0000000000000000e+00  2.9149484324454811e+03 4.0184227662990014e+02 0.0000000000000000e+00  2.9160539227578661e+03 3.7848821333863361e+02 0.0000000000000000e+00  2.9291567768126301e+03 3.7900781281535205e+02 0.0000000000000000e+00  2.9416411680707533e+03 3.7945794270339832e+02 0.0000000000000000e+00  2.9535014523688615e+03 3.7983868429401787e+02 0.0000000000000000e+00  2.9647320224269793e+03 3.8015010636515484e+02 0.0000000000000000e+00  2.9753273082255955e+03 3.8039226518491853e+02 0.0000000000000000e+00  2.9852817773837310e+03 3.8056520451442969e+02 0.0000000000000000e+00  2.9945899355381462e+03 3.8066895561004128e+02 0.0000000000000000e+00  3.0032463267237599e+03 3.8070353722492791e+02 0.0000000000000000e+00  2.2655368693166342e+03 3.0905450250890698e+02 0.0000000000000000e+00  2.2362360176500629e+03 3.0643403418668441e+02 0.0000000000000000e+00  2.2944103103076732e+03 3.1160153564929044e+02 0.0000000000000000e+00  2.3228497360018127e+03 3.1407555929033128e+02 0.0000000000000000e+00  2.3508485670653176e+03 3.1647698755972198e+02 0.0000000000000000e+00  2.3784002498353589e+03 3.1880622304378670e+02 0.0000000000000000e+00  2.4054982567023408e+03 3.2106365680093353e+02 0.0000000000000000e+00  2.4321360864912981e+03 3.2324966837509584e+02 0.0000000000000000e+00  2.4583072648424013e+03 3.2536462580913764e+02 0.0000000000000000e+00  2.4840053445906110e+03 3.2740888565819830e+02 0.0000000000000000e+00  2.5092239061444966e+03 3.2938279300294897e+02 0.0000000000000000e+00  2.5339565578642919e+03 3.3128668146273674e+02 0.0000000000000000e+00  2.5581969364391985e+03 3.3312087320858984e+02 0.0000000000000000e+00  2.5819387072639984e+03 3.3488567897605884e+02 0.0000000000000000e+00  2.6051755648150142e+03 3.3658139807786779e+02 0.0000000000000000e+00  2.6279012330254704e+03 3.3820831841635237e+02 0.0000000000000000e+00  2.6501094656603004e+03 3.3976671649565770e+02 0.0000000000000000e+00  2.6717940466904602e+03 3.4125685743367393e+02 0.0000000000000000e+00  2.6929487906667855e+03 3.4267899497368467e+02 0.0000000000000000e+00  2.7135675430934848e+03 3.4403337149570507e+02 0.0000000000000000e+00  2.7336441808012873e+03 3.4532021802748824e+02 0.0000000000000000e+00  2.7531726123203362e+03 3.4653975425517621e+02 0.0000000000000000e+00  2.7721467782528784e+03 3.4769218853357580e+02 0.0000000000000000e+00  2.7905606516458270e+03 3.4877771789603793e+02 0.0000000000000000e+00  2.8084082383632499e+03 3.4979652806392033e+02 0.0000000000000000e+00  2.8256835774588794e+03 3.5074879345561686e+02 0.0000000000000000e+00  2.8423807415486876e+03 3.5163467719513204e+02 0.0000000000000000e+00  2.8584938371836324e+03 3.5245433112018651e+02 0.0000000000000000e+00  2.8740170052226276e+03 3.5320789578983647e+02 0.0000000000000000e+00  2.8889444212058306e+03 3.5389550049159016e+02 0.0000000000000000e+00  2.9032702957283313e+03 3.5451726324801018e+02 0.0000000000000000e+00  2.9169888748143148e+03 3.5507329082278545e+02 0.0000000000000000e+00  2.9300944402917994e+03 3.5556367872626339e+02 0.0000000000000000e+00  2.9425813101680242e+03 3.5598851122042851e+02 0.0000000000000000e+00  2.9544438390055884e+03 3.5634786132331971e+02 0.0000000000000000e+00  2.9656764182994239e+03 3.5664179081287682e+02 0.0000000000000000e+00  2.9762734768547157e+03 3.5687035023020780e+02 0.0000000000000000e+00  2.9862294811658344e+03 3.5703357888227140e+02 0.0000000000000000e+00  2.9955389357964059e+03 3.5713150484396891e+02 0.0000000000000000e+00  3.0041963837606090e+03 3.5716414495964136e+02 0.0000000000000000e+00  3.0112455337554102e+03 3.8066895561004151e+02 0.0000000000000000e+00  3.0121964069057999e+03 3.5713150484396903e+02 0.0000000000000000e+00  3.0195336262965657e+03 3.5703357888227157e+02 0.0000000000000000e+00  2.2661530913233687e+03 2.8838218087061745e+02 0.0000000000000000e+00  2.2368448245247068e+03 2.8592376677850945e+02 0.0000000000000000e+00  2.2950338056186333e+03 2.9077197536767937e+02 0.0000000000000000e+00  2.3234803608216198e+03 2.9309352803573807e+02 0.0000000000000000e+00  2.3514861756524892e+03 2.9534720636613935e+02 0.0000000000000000e+00  2.3790446945242238e+03 2.9753336758941663e+02 0.0000000000000000e+00  2.4061493879254467e+03 2.9965235868909917e+02 0.0000000000000000e+00  2.4327937528023353e+03 3.0170451641542087e+02 0.0000000000000000e+00  2.4589713129396423e+03 3.0369016729891240e+02 0.0000000000000000e+00  2.4846756193408710e+03 3.0560962766385433e+02 0.0000000000000000e+00  2.5099002506076313e+03 3.0746320364157179e+02 0.0000000000000000e+00  2.5346388133182263e+03 3.0925119118355127e+02 0.0000000000000000e+00  2.5588849424055065e+03 3.1097387607435695e+02 0.0000000000000000e+00  2.5826323015340331e+03 3.1263153394432982e+02 0.0000000000000000e+00  2.6058745834765973e+03 3.1422443028204566e+02 0.0000000000000000e+00  2.6286055104901511e+03 3.1575282044651675e+02 0.0000000000000000e+00  2.6508188346911879e+03 3.1721694967911316e+02 0.0000000000000000e+00  2.6725083384306340e+03 3.1861705311518887e+02 0.0000000000000000e+00  2.6936678346683043e+03 3.1995335579539045e+02 0.0000000000000000e+00  2.7142911673469816e+03 3.2122607267663216e+02 0.0000000000000000e+00  2.7343722117661750e+03 3.2243540864271949e+02 0.0000000000000000e+00  2.7539048749556164e+03 3.2358155851460157e+02 0.0000000000000000e+00  2.7728830960485789e+03 3.2466470706023932e+02 0.0000000000000000e+00  2.7913008466550505e+03 3.2568502900406986e+02 0.0000000000000000e+00  2.8091521312348659e+03 3.2664268903605335e+02 0.0000000000000000e+00  2.8264309874708456e+03 3.2753784182028608e+02 0.0000000000000000e+00  2.8431314866420225e+03 3.2837063200316703e+02 0.0000000000000000e+00  2.8592477339970355e+03 3.2914119422110264e+02 0.0000000000000000e+00  2.8747738691277559e+03 3.2984965310773850e+02 0.0000000000000000e+00  2.8897040663432472e+03 3.3049612330070471e+02 0.0000000000000000e+00  2.9040325350441121e+03 3.3108070944786419e+02 0.0000000000000000e+00  2.9177535200973380e+03 3.3160350621305366e+02 0.0000000000000000e+00  2.9308613022117156e+03 3.3206459828130670e+02 0.0000000000000000e+00  2.9433501983139126e+03 3.3246406036355154e+02 0.0000000000000000e+00  2.9552145619253015e+03 3.3280195720077478e+02 0.0000000000000000e+00  2.9664487835396353e+03 3.3307834356764397e+02 0.0000000000000000e+00  2.9770472910016597e+03 3.3329326427558357e+02 0.0000000000000000e+00  2.9870045498867571e+03 3.3344675417529822e+02 0.0000000000000000e+00  2.9963150638817215e+03 3.3353883815874059e+02 0.0000000000000000e+00  3.0049733751667682e+03 3.3356953116051852e+02 0.0000000000000000e+00  3.0129740647988742e+03 3.3353883815874070e+02 0.0000000000000000e+00  3.0203117530965510e+03 3.3344675417529834e+02 0.0000000000000000e+00  3.0269811000261534e+03 3.3329326427558368e+02 0.0000000000000000e+00  2.2666322280654435e+03 2.6766790996896560e+02 0.0000000000000000e+00  2.2373181960029901e+03 2.6537193816165586e+02 0.0000000000000000e+00  2.2955185973356506e+03 2.6990008805666321e+02 0.0000000000000000e+00  2.3239706956949472e+03 2.7206880226039408e+02 0.0000000000000000e+00  2.3519819403503780e+03 2.7417437342127221e+02 0.0000000000000000e+00  2.3795457742188496e+03 2.7621711340023302e+02 0.0000000000000000e+00  2.4066556663103534e+03 2.7819732509221711e+02 0.0000000000000000e+00  2.4333051121102694e+03 2.8011530244016774e+02 0.0000000000000000e+00  2.4594876339607913e+03 2.8197133044882855e+02 0.0000000000000000e+00  2.4851967814415061e+03 2.8376568519832637e+02 0.0000000000000000e+00  2.5104261317491678e+03 2.8549863385752445e+02 0.0000000000000000e+00  2.5351692900767011e+03 2.8717043469713116e+02 0.0000000000000000e+00  2.5594198899914772e+03 2.8878133710254889e+02 0.0000000000000000e+00  2.5831715938129114e+03 2.9033158158644943e+02 0.0000000000000000e+00  2.6064180929894155e+03 2.9182139980106024e+02 0.0000000000000000e+00  2.6291531084747685e+03 2.9325101455014737e+02 0.0000000000000000e+00  2.6513703911039465e+03 2.9462063980068120e+02 0.0000000000000000e+00  2.6730637219684654e+03 2.9593048069416977e+02 0.0000000000000000e+00  2.6942269127912959e+03 2.9718073355764778e+02 0.0000000000000000e+00  2.7148538063014062e+03 2.9837158591430591e+02 0.0000000000000000e+00  2.7349382766079866e+03 2.9950321649374769e+02 0.0000000000000000e+00  2.7544742295744268e+03 3.0057579524186286e+02 0.0000000000000000e+00  2.7734556031921070e+03 3.0158948333030145e+02 0.0000000000000000e+00  2.7918763679540648e+03 3.0254443316554062e+02 0.0000000000000000e+00  2.8097305272286153e+03 3.0344078839752882e+02 0.0000000000000000e+00  2.8270121176329817e+03 3.0427868392789901e+02 0.0000000000000000e+00  2.8437152094070311e+03 3.0505824591773910e+02 0.0000000000000000e+00  2.8598339067871680e+03 3.0577959179491012e+02 0.0000000000000000e+00  2.8753623483