<?xml version="1.0"?>
<VTKFile type="UnstructuredGrid"  version="0.1"  >
<UnstructuredGrid>
<Piece  NumberOfPoints="7500" NumberOfCells="14651">
<Points>
<DataArray  type="Float64"  NumberOfComponents="3"  format="ascii">109 216 0  110 216 0  110 217 0  109 217 0  111 216 0  111 217 0  112 216 0  112 217 0  113 216 0  113 217 0  114 216 0  114 217 0  115 217 0  101 217 0  102 217 0  102 218 0  101 218 0  103 217 0  103 218 0  104 217 0  104 218 0  105 218 0  108 217 0  109 218 0  108 218 0  110 218 0  111 218 0  112 218 0  113 218 0  114 218 0  115 218 0  116 217 0  116 218 0  117 217 0  117 218 0  118 217 0  118 218 0  119 217 0  119 218 0  120 217 0  120 218 0  121 217 0  121 218 0  122 217 0  122 218 0  123 217 0  123 218 0  124 217 0  124 218 0  125 217 0  125 218 0  126 217 0  126 218 0  127 217 0  127 218 0  128 218 0  102 219 0  101 219 0  103 219 0  104 219 0  105 219 0  106 219 0  109 219 0  108 219 0  110 219 0  111 219 0  112 219 0  113 219 0  114 219 0  115 219 0  116 219 0  117 219 0  118 219 0  119 219 0  120 219 0  121 219 0  122 219 0  123 219 0  124 219 0  125 219 0  126 219 0  127 219 0  128 219 0  129 219 0  130 218 0  131 218 0  131 219 0  130 219 0  132 218 0  132 219 0  133 218 0  133 219 0  134 218 0  134 219 0  135 219 0  95 219 0  96 219 0  96 220 0  95 220 0  97 219 0  97 220 0  98 219 0  98 220 0  99 219 0  99 220 0  100 219 0  100 220 0  101 220 0  102 220 0  103 220 0  104 220 0  105 220 0  106 220 0  107 219 0  107 220 0  108 220 0  109 220 0  110 220 0  111 220 0  112 220 0  113 220 0  114 220 0  115 220 0  116 220 0  117 220 0  118 220 0  119 220 0  120 220 0  121 220 0  122 220 0  123 220 0  124 220 0  125 220 0  126 220 0  127 220 0  128 220 0  129 220 0  130 220 0  131 220 0  132 220 0  133 220 0  134 220 0  135 220 0  136 219 0  136 220 0  137 219 0  137 220 0  138 219 0  138 220 0  139 219 0  139 220 0  140 219 0  140 220 0  141 220 0  89 220 0  90 220 0  90 221 0  89 221 0  91 220 0  91 221 0  92 220 0  92 221 0  93 220 0  93 221 0  94 220 0  94 221 0  95 221 0  96 221 0  97 221 0  98 221 0  99 221 0  100 221 0  101 221 0  102 221 0  103 221 0  104 221 0  105 221 0  106 221 0  107 221 0  108 221 0  109 221 0  110 221 0  111 221 0  112 221 0  113 221 0  114 221 0  115 221 0  116 221 0  117 221 0  118 221 0  119 221 0  120 221 0  121 221 0  122 221 0  123 221 0  124 221 0  125 221 0  126 221 0  127 221 0  128 221 0  129 221 0  130 221 0  131 221 0  132 221 0  133 221 0  134 221 0  135 221 0  136 221 0  137 221 0  138 221 0  139 221 0  140 221 0  141 221 0  142 221 0  86 221 0  87 221 0  87 222 0  88 221 0  88 222 0  89 222 0  90 222 0  91 222 0  92 222 0  93 222 0  94 222 0  95 222 0  96 222 0  97 222 0  98 222 0  99 222 0  100 222 0  101 222 0  102 222 0  103 222 0  104 222 0  105 222 0  106 222 0  107 222 0  108 222 0  109 222 0  110 222 0  111 222 0  112 222 0  113 222 0  114 222 0  115 222 0  116 222 0  117 222 0  118 222 0  119 222 0  120 222 0  121 222 0  122 222 0  123 222 0  124 222 0  125 222 0  126 222 0  127 222 0  128 222 0  129 222 0  130 222 0  131 222 0  132 222 0  133 222 0  134 222 0  135 222 0  136 222 0  137 222 0  138 222 0  139 222 0  140 222 0  141 222 0  142 222 0  143 222 0  88 223 0  89 223 0  90 223 0  91 223 0  92 223 0  93 223 0  94 223 0  95 223 0  96 223 0  97 223 0  98 223 0  99 223 0  100 223 0  101 223 0  102 223 0  103 223 0  104 223 0  105 223 0  106 223 0  107 223 0  108 223 0  109 223 0  110 223 0  111 223 0  112 223 0  113 223 0  114 223 0  115 223 0  116 223 0  117 223 0  118 223 0  119 223 0  120 223 0  121 223 0  122 223 0  123 223 0  124 223 0  125 223 0  126 223 0  127 223 0  128 223 0  129 223 0  130 223 0  131 223 0  132 223 0  133 223 0  134 223 0  135 223 0  136 223 0  137 223 0  138 223 0  139 223 0  140 223 0  141 223 0  142 223 0  143 223 0  144 223 0  89 224 0  88 224 0  90 224 0  91 224 0  92 224 0  93 224 0  94 224 0  95 224 0  96 224 0  97 224 0  98 224 0  99 224 0  100 224 0  101 224 0  102 224 0  103 224 0  104 224 0  105 224 0  106 224 0  107 224 0  108 224 0  109 224 0  110 224 0  111 224 0  112 224 0  113 224 0  114 224 0  115 224 0  116 224 0  117 224 0  118 224 0  119 224 0  120 224 0  121 224 0  122 224 0  123 224 0  124 224 0  125 224 0  126 224 0  127 224 0  128 224 0  129 224 0  130 224 0  131 224 0  132 224 0  133 224 0  134 224 0  135 224 0  136 224 0  137 224 0  138 224 0  139 224 0  140 224 0  141 224 0  142 224 0  143 224 0  144 224 0  145 224 0  89 225 0  88 225 0  90 225 0  91 225 0  92 225 0  93 225 0  94 225 0  95 225 0  96 225 0  97 225 0  98 225 0  99 225 0  100 225 0  101 225 0  102 225 0  103 225 0  104 225 0  105 225 0  106 225 0  107 225 0  108 225 0  109 225 0  110 225 0  111 225 0  112 225 0  113 225 0  114 225 0  115 225 0  116 225 0  117 225 0  118 225 0  119 225 0  120 225 0  121 225 0  122 225 0  123 225 0  124 225 0  125 225 0  126 225 0  127 225 0  128 225 0  129 225 0  130 225 0  131 225 0  132 225 0  133 225 0  134 225 0  135 225 0  136 225 0  137 225 0  138 225 0  139 225 0  140 225 0  141 225 0  142 225 0  143 225 0  144 225 0  145 225 0  146 224 0  146 225 0  147 225 0  89 226 0  90 226 0  91 226 0  92 226 0  93 226 0  94 226 0  95 226 0  96 226 0  97 226 0  98 226 0  99 226 0  100 226 0  101 226 0  102 226 0  103 226 0  104 226 0  105 226 0  106 226 0  107 226 0  108 226 0  109 226 0  110 226 0  111 226 0  112 226 0  113 226 0  114 226 0  115 226 0  116 226 0  117 226 0  118 226 0  119 226 0  120 226 0  121 226 0  122 226 0  123 226 0  124 226 0  125 226 0  126 226 0  127 226 0  128 226 0  129 226 0  130 226 0  131 226 0  132 226 0  133 226 0  134 226 0  135 226 0  136 226 0  137 226 0  138 226 0  139 226 0  140 226 0  141 226 0  142 226 0  143 226 0  144 226 0  145 226 0  146 226 0  147 226 0  148 226 0  90 227 0  89 227 0  91 227 0  92 227 0  93 227 0  94 227 0  95 227 0  96 227 0  97 227 0  98 227 0  99 227 0  100 227 0  101 227 0  102 227 0  103 227 0  104 227 0  105 227 0  106 227 0  107 227 0  108 227 0  109 227 0  110 227 0  111 227 0  112 227 0  113 227 0  114 227 0  115 227 0  116 227 0  117 227 0  118 227 0  119 227 0  120 227 0  121 227 0  122 227 0  123 227 0  124 227 0  125 227 0  126 227 0  127 227 0  128 227 0  129 227 0  130 227 0  131 227 0  132 227 0  133 227 0  134 227 0  135 227 0  136 227 0  137 227 0  138 227 0  139 227 0  140 227 0  141 227 0  142 227 0  143 227 0  144 227 0  145 227 0  146 227 0  147 227 0  148 227 0  149 226 0  149 227 0  150 226 0  150 227 0  151 226 0  151 227 0  152 226 0  152 227 0  153 227 0  90 228 0  89 228 0  91 228 0  92 228 0  93 228 0  94 228 0  95 228 0  96 228 0  97 228 0  98 228 0  99 228 0  100 228 0  101 228 0  102 228 0  103 228 0  104 228 0  105 228 0  106 228 0  107 228 0  108 228 0  109 228 0  110 228 0  111 228 0  112 228 0  113 228 0  114 228 0  115 228 0  116 228 0  117 228 0  118 228 0  119 228 0  120 228 0  121 228 0  122 228 0  123 228 0  124 228 0  125 228 0  126 228 0  127 228 0  128 228 0  129 228 0  130 228 0  131 228 0  132 228 0  133 228 0  134 228 0  135 228 0  136 228 0  137 228 0  138 228 0  139 228 0  140 228 0  141 228 0  142 228 0  143 228 0  144 228 0  145 228 0  146 228 0  147 228 0  148 228 0  149 228 0  150 228 0  151 228 0  152 228 0  153 228 0  154 227 0  154 228 0  155 227 0  155 228 0  156 227 0  156 228 0  157 228 0  161 227 0  162 227 0  162 228 0  161 228 0  163 227 0  163 228 0  164 227 0  164 228 0  165 227 0  165 228 0  166 227 0  166 228 0  167 227 0  167 228 0  168 227 0  168 228 0  169 227 0  169 228 0  170 228 0  90 229 0  89 229 0  91 229 0  92 229 0  93 229 0  94 229 0  95 229 0  96 229 0  97 229 0  98 229 0  99 229 0  100 229 0  101 229 0  102 229 0  103 229 0  104 229 0  105 229 0  106 229 0  107 229 0  108 229 0  109 229 0  110 229 0  111 229 0  112 229 0  113 229 0  114 229 0  115 229 0  116 229 0  117 229 0  118 229 0  119 229 0  120 229 0  121 229 0  122 229 0  123 229 0  124 229 0  125 229 0  126 229 0  127 229 0  128 229 0  129 229 0  130 229 0  131 229 0  132 229 0  133 229 0  134 229 0  135 229 0  136 229 0  137 229 0  138 229 0  139 229 0  140 229 0  141 229 0  142 229 0  143 229 0  144 229 0  145 229 0  146 229 0  147 229 0  148 229 0  149 229 0  150 229 0  151 229 0  152 229 0  153 229 0  154 229 0  155 229 0  156 229 0  157 229 0  158 229 0  162 229 0  161 229 0  163 229 0  164 229 0  165 229 0  166 229 0  167 229 0  168 229 0  169 229 0  170 229 0  171 229 0  90 230 0  89 230 0  91 230 0  92 230 0  93 230 0  94 230 0  95 230 0  96 230 0  97 230 0  98 230 0  99 230 0  100 230 0  101 230 0  102 230 0  103 230 0  104 230 0  105 230 0  106 230 0  107 230 0  108 230 0  109 230 0  110 230 0  111 230 0  112 230 0  113 230 0  114 230 0  115 230 0  116 230 0  117 230 0  118 230 0  119 230 0  120 230 0  121 230 0  122 230 0  123 230 0  124 230 0  125 230 0  126 230 0  127 230 0  128 230 0  129 230 0  130 230 0  131 230 0  132 230 0  133 230 0  134 230 0  135 230 0  136 230 0  137 230 0  138 230 0  139 230 0  140 230 0  141 230 0  142 230 0  143 230 0  144 230 0  145 230 0  146 230 0  147 230 0  148 230 0  149 230 0  150 230 0  151 230 0  152 230 0  153 230 0  154 230 0  155 230 0  156 230 0  157 230 0  158 230 0  159 229 0  159 230 0  160 229 0  160 230 0  161 230 0  162 230 0  163 230 0  164 230 0  165 230 0  166 230 0  167 230 0  168 230 0  169 230 0  170 230 0  171 230 0  172 230 0  90 231 0  89 231 0  91 231 0  92 231 0  93 231 0  94 231 0  95 231 0  96 231 0  97 231 0  98 231 0  99 231 0  100 231 0  101 231 0  102 231 0  103 231 0  104 231 0  105 231 0  106 231 0  107 231 0  108 231 0  109 231 0  110 231 0  111 231 0  112 231 0  113 231 0  114 231 0  115 231 0  116 231 0  117 231 0  118 231 0  119 231 0  120 231 0  121 231 0  122 231 0  123 231 0  124 231 0  125 231 0  126 231 0  127 231 0  128 231 0  129 231 0  130 231 0  131 231 0  132 231 0  133 231 0  134 231 0  135 231 0  136 231 0  137 231 0  138 231 0  139 231 0  140 231 0  141 231 0  142 231 0  143 231 0  144 231 0  145 231 0  146 231 0  147 231 0  148 231 0  149 231 0  150 231 0  151 231 0  152 231 0  153 231 0  15
[...]
<PointData  Vectors="f_85"> 
<DataArray  type="Float64"  Name="f_85"  NumberOfComponents="3" format="ascii">2.6461787429468550e+03 -1.0801567080812672e+03 0.0000000000000000e+00  2.6472851644745460e+03 -1.0782587655734860e+03 0.0000000000000000e+00  2.6335558870243199e+03 -1.0898783416446815e+03 0.0000000000000000e+00  2.6324308931536430e+03 -1.0917934619248113e+03 0.0000000000000000e+00  2.6477791214937843e+03 -1.0761919908164789e+03 0.0000000000000000e+00  2.6340719897781419e+03 -1.0877928457077942e+03 0.0000000000000000e+00  2.6476559542193741e+03 -1.0739554328552192e+03 0.0000000000000000e+00  2.6339745534365743e+03 -1.0855360106133107e+03 0.0000000000000000e+00  2.6469110212162159e+03 -1.0715480636630127e+03 0.0000000000000000e+00  2.6332589475966629e+03 -1.0831067947356596e+03 0.0000000000000000e+00  2.6455396993393165e+03 -1.0689687779170870e+03 0.0000000000000000e+00  2.6319205593524680e+03 -1.0805040780887873e+03 0.0000000000000000e+00  2.6299547932157457e+03 -1.0777266620749390e+03 0.0000000000000000e+00  2.6020744789364003e+03 -1.1010708983398945e+03 0.0000000000000000e+00  2.6079011407816411e+03 -1.1004934073442578e+03 0.0000000000000000e+00  2.5938411581487208e+03 -1.1118095042528491e+03 0.0000000000000000e+00  2.5880244656914651e+03 -1.1123918858702120e+03 0.0000000000000000e+00  2.6131567369335039e+03 -1.0997504591027030e+03 0.0000000000000000e+00  2.5990903050939178e+03 -1.1110602622813935e+03 0.0000000000000000e+00  2.6178364761963212e+03 -1.0988417086002753e+03 0.0000000000000000e+00  2.6037671332857303e+03 -1.1101438105928896e+03 0.0000000000000000e+00  2.6078668869707130e+03 -1.1090597220126306e+03 0.0000000000000000e+00  2.6307016737976273e+03 -1.0935390921441685e+03 0.0000000000000000e+00  2.6184006493198522e+03 -1.1030357254714172e+03 0.0000000000000000e+00  2.6166564041577612e+03 -1.1047961936640918e+03 0.0000000000000000e+00  2.6195443007575950e+03 -1.1011043130149255e+03 0.0000000000000000e+00  2.6200827059363414e+03 -1.0990010593989973e+03 0.0000000000000000e+00  2.6200112292107528e+03 -1.0967249887968599e+03 0.0000000000000000e+00  2.6193252517287592e+03 -1.0942750462198185e+03 0.0000000000000000e+00  2.6180201713339497e+03 -1.0916500972697540e+03 0.0000000000000000e+00  2.6160914024668127e+03 -1.0888489278753166e+03 0.0000000000000000e+00  2.6273570710363447e+03 -1.0747732692184127e+03 0.0000000000000000e+00  2.6135343760652881e+03 -1.0858702440122370e+03 0.0000000000000000e+00  2.6241228319227612e+03 -1.0716425428847601e+03 0.0000000000000000e+00  2.6103445394650666e+03 -1.0827126714082549e+03 0.0000000000000000e+00  2.6202475321633674e+03 -1.0683330469859411e+03 0.0000000000000000e+00  2.6065173563001763e+03 -1.0793747552331699e+03 0.0000000000000000e+00  2.6157266451488322e+03 -1.0648432656719754e+03 0.0000000000000000e+00  2.6020483064043578e+03 -1.0758549597745682e+03 0.0000000000000000e+00  2.6105556612962951e+03 -1.0611716030096754e+03 0.0000000000000000e+00  2.5969328857138057e+03 -1.0721516680998222e+03 0.0000000000000000e+00  2.6047300879758759e+03 -1.0573163826490750e+03 0.0000000000000000e+00  2.5911666061718606e+03 -1.0682631817049830e+03 0.0000000000000000e+00  2.5982454494401404e+03 -1.0532758474782045e+03 0.0000000000000000e+00  2.5847449956362934e+03 -1.0641877201512352e+03 0.0000000000000000e+00  2.5910972867571645e+03 -1.0490481592669157e+03 0.0000000000000000e+00  2.5776635977898104e+03 -1.0599234206896213e+03 0.0000000000000000e+00  2.5832811577478878e+03 -1.0446313983004816e+03 0.0000000000000000e+00  2.5699179720544976e+03 -1.0554683378747877e+03 0.0000000000000000e+00  2.5747926369284751e+03 -1.0400235630037469e+03 0.0000000000000000e+00  2.5615036935109420e+03 -1.0508204431685374e+03 0.0000000000000000e+00  2.5656273154584169e+03 -1.0352225695566397e+03 0.0000000000000000e+00  2.5524163528227527e+03 -1.0459776245340172e+03 0.0000000000000000e+00  2.5557808010951812e+03 -1.0302262515019020e+03 0.0000000000000000e+00  2.5426515561673468e+03 -1.0409376860214229e+03 0.0000000000000000e+00  2.5322049251737667e+03 -1.0356983473461385e+03 0.0000000000000000e+00  2.5794966201067855e+03 -1.1227202517131193e+03 0.0000000000000000e+00  2.5736903823702883e+03 -1.1233072523149517e+03 0.0000000000000000e+00  2.5847389001626625e+03 -1.1219650653747183e+03 0.0000000000000000e+00  2.5894124678414046e+03 -1.1210413396748459e+03 0.0000000000000000e+00  2.5935125852854999e+03 -1.1199486422214429e+03 0.0000000000000000e+00  2.5970345313848420e+03 -1.1186864617453978e+03 0.0000000000000000e+00  2.6040843796844952e+03 -1.1138767234794275e+03 0.0000000000000000e+00  2.6023251082669403e+03 -1.1156512114672873e+03 0.0000000000000000e+00  2.6052467608165075e+03 -1.1119299157421922e+03 0.0000000000000000e+00  2.6058076127773252e+03 -1.1098098802739951e+03 0.0000000000000000e+00  2.6057623127999723e+03 -1.1075156291529011e+03 0.0000000000000000e+00  2.6051062541210372e+03 -1.1050460942745851e+03 0.0000000000000000e+00  2.6038348458635601e+03 -1.1024001270926801e+03 0.0000000000000000e+00  2.6019435129183480e+03 -1.0995764983419226e+03 0.0000000000000000e+00  2.5994276958241562e+03 -1.0965738977445501e+03 0.0000000000000000e+00  2.5962828506472019e+03 -1.0933909337004400e+03 0.0000000000000000e+00  2.5925044488605313e+03 -1.0900261329615012e+03 0.0000000000000000e+00  2.5880879772237508e+03 -1.0864779402908912e+03 0.0000000000000000e+00  2.5830289376637033e+03 -1.0827447181076491e+03 0.0000000000000000e+00  2.5773228471566881e+03 -1.0788247461173878e+03 0.0000000000000000e+00  2.5709652376128479e+03 -1.0747162209297185e+03 0.0000000000000000e+00  2.5639516557633997e+03 -1.0704172556631324e+03 0.0000000000000000e+00  2.5562776630514109e+03 -1.0659258795380979e+03 0.0000000000000000e+00  2.5479388355268620e+03 -1.0612400374591848e+03 0.0000000000000000e+00  2.5389307637467791e+03 -1.0563575895870551e+03 0.0000000000000000e+00  2.5292490526812485e+03 -1.0512763109012221e+03 0.0000000000000000e+00  2.5188893216261799e+03 -1.0459938907545204e+03 0.0000000000000000e+00  2.5078472041237169e+03 -1.0405079324202641e+03 0.0000000000000000e+00  2.5092487236300235e+03 -1.0246119241185490e+03 0.0000000000000000e+00  2.4967304731534905e+03 -1.0187598534397989e+03 0.0000000000000000e+00  2.4836984147598805e+03 -1.0289153811249103e+03 0.0000000000000000e+00  2.4961183478912294e+03 -1.0348159526331415e+03 0.0000000000000000e+00  2.4835130284258075e+03 -1.0126984094648028e+03 0.0000000000000000e+00  2.4705830806237800e+03 -1.0228035601560475e+03 0.0000000000000000e+00  2.4695920877128929e+03 -1.0064248837119945e+03 0.0000000000000000e+00  2.4567680354008112e+03 -1.0164777440445110e+03 0.0000000000000000e+00  2.4549633645597305e+03 -9.9993648073198938e+02 0.0000000000000000e+00  2.4422489830062250e+03 -1.0099350986928582e+03 0.0000000000000000e+00  2.4270216413401618e+03 -1.0031727011149923e+03 0.0000000000000000e+00  2.5272782503378248e+03 -1.1233072523149515e+03 0.0000000000000000e+00  2.5363674321694702e+03 -1.1237263421280913e+03 0.0000000000000000e+00  2.5218546339864270e+03 -1.1342323379064374e+03 0.0000000000000000e+00  2.5127979113048700e+03 -1.1338101475217693e+03 0.0000000000000000e+00  2.5449215426620717e+03 -1.1239777174936235e+03 0.0000000000000000e+00  2.5303798136946148e+03 -1.1344855726906524e+03 0.0000000000000000e+00  2.5529357244247353e+03 -1.1240614961960816e+03 0.0000000000000000e+00  2.5383686157846746e+03 -1.1345699710453459e+03 0.0000000000000000e+00  2.5604051373548073e+03 -1.1239777174936232e+03 0.0000000000000000e+00  2.5458162223373956e+03 -1.1344855726906519e+03 0.0000000000000000e+00  2.5673249585758549e+03 -1.1237263421280913e+03 0.0000000000000000e+00  2.5527178320830089e+03 -1.1342323379064374e+03 0.0000000000000000e+00  2.5590686603193403e+03 -1.1338101475217695e+03 0.0000000000000000e+00  2.5648639388243937e+03 -1.1332188028833430e+03 0.0000000000000000e+00  2.5700989157634904e+03 -1.1324580258028998e+03 0.0000000000000000e+00  2.5747688555911609e+03 -1.1315274584837191e+03 0.0000000000000000e+00  2.5788690389479484e+03 -1.1304266634262835e+03 0.0000000000000000e+00  2.5823947625523615e+03 -1.1291551233132391e+03 0.0000000000000000e+00  2.5999736016809043e+03 -1.1172542079710513e+03 0.0000000000000000e+00  2.5853413390881747e+03 -1.1277122408738271e+03 0.0000000000000000e+00  2.5877040970873386e+03 -1.1260973387279639e+03 0.0000000000000000e+00  2.5894783808087641e+03 -1.1243096592101997e+03 0.0000000000000000e+00  2.5906595501132579e+03 -1.1223483641738071e+03 0.0000000000000000e+00  2.5912429803349305e+03 -1.1202125347752765e+03 0.0000000000000000e+00  2.5912240621494107e+03 -1.1179011712395495e+03 0.0000000000000000e+00  2.5905982014392216e+03 -1.1154131926063276e+03 0.0000000000000000e+00  2.5893608191567105e+03 -1.1127474364578452e+03 0.0000000000000000e+00  2.5875073511849437e+03 -1.1099026586285283e+03 0.0000000000000000e+00  2.5850332481970131e+03 -1.1068775328969871e+03 0.0000000000000000e+00  2.5819339755142132e+03 -1.1036706506608396e+03 0.0000000000000000e+00  2.5782050129636127e+03 -1.1002805205948898e+03 0.0000000000000000e+00  2.5738418547355436e+03 -1.0967055682932319e+03 0.0000000000000000e+00  2.5688400092415695e+03 -1.0929441358958811e+03 0.0000000000000000e+00  2.5631949989735617e+03 -1.0889944817005867e+03 0.0000000000000000e+00  2.5569023603644928e+03 -1.0848547797605052e+03 0.0000000000000000e+00  2.5499576436516459e+03 -1.0805231194684770e+03 0.0000000000000000e+00  2.5423564127429413e+03 -1.0759975051286731e+03 0.0000000000000000e+00  2.5340942450871407e+03 -1.0712758555164357e+03 0.0000000000000000e+00  2.5251667315487225e+03 -1.0663560034271820e+03 0.0000000000000000e+00  2.5155694762882504e+03 -1.0612356952152761e+03 0.0000000000000000e+00  2.5052980966491382e+03 -1.0559125903238421e+03 0.0000000000000000e+00  2.4943482230517066e+03 -1.0503842608065195e+03 0.0000000000000000e+00  2.4827154988955072e+03 -1.0446481908422268e+03 0.0000000000000000e+00  2.4703955804709240e+03 -1.0387017762440391e+03 0.0000000000000000e+00  2.4573841368811009e+03 -1.0325423239633515e+03 0.0000000000000000e+00  2.4436768499753020e+03 -1.0261670515905296e+03 0.0000000000000000e+00  2.4292694142948444e+03 -1.0195730868533262e+03 0.0000000000000000e+00  2.4141575370328023e+03 -1.0127574671143744e+03 0.0000000000000000e+00  2.4110817422903033e+03 -9.9618753896386636e+02 0.0000000000000000e+00  2.3983369380087152e+03 -1.0057171388691356e+03 0.0000000000000000e+00  2.3944250317508777e+03 -9.8897651006152307e+02 0.0000000000000000e+00  2.3818033496595881e+03 -9.9844895724572484e+02 0.0000000000000000e+00  2.3770472696593174e+03 -9.8153642193289272e+02 0.0000000000000000e+00  2.3645525170485153e+03 -9.9094968550808824e+02 0.0000000000000000e+00  2.3589442300518863e+03 -9.7386399134482724e+02 0.0000000000000000e+00  2.3465801978923064e+03 -9.8321599456406955e+02 0.0000000000000000e+00  2.3401117011396236e+03 -9.6595584385188727e+02 0.0000000000000000e+00  2.3278821626095159e+03 -9.7524446247993785e+02 0.0000000000000000e+00  2.3084541943903746e+03 -9.6703157400301643e+02 0.0000000000000000e+00  2.4475680367433783e+03 -1.1277122408738285e+03 0.0000000000000000e+00  2.4597115450003730e+03 -1.1291551233132404e+03 0.0000000000000000e+00  2.4451644533734320e+03 -1.1392066309943543e+03 0.0000000000000000e+00  2.4330753687249717e+03 -1.1377537972699595e+03 0.0000000000000000e+00  2.4713528729013210e+03 -1.1304266634262847e+03 0.0000000000000000e+00  2.4567547997244042e+03 -1.1404869334736386e+03 0.0000000000000000e+00  2.4824870841844804e+03 -1.1315274584837205e+03 0.0000000000000000e+00  2.4678414980133607e+03 -1.1415953088177537e+03 0.0000000000000000e+00  2.4931092596440399e+03 -1.1324580258029000e+03 0.0000000000000000e+00  2.4784196550446100e+03 -1.1425322802567230e+03 0.0000000000000000e+00  2.5032144970905142e+03 -1.1332188028833434e+03 0.0000000000000000e+00  2.4884843941395593e+03 -1.1432982902824883e+03 0.0000000000000000e+00  2.4980308550783661e+03 -1.1438937007692500e+03 0.0000000000000000e+00  2.5070541940350249e+03 -1.1443187930721399e+03 0.0000000000000000e+00  2.5155495835059705e+03 -1.1445737681041066e+03 0.0000000000000000e+00  2.5235122122322464e+03 -1.1446587463909020e+03 0.0000000000000000e+00  2.5309372851153535e+03 -1.1445737681041066e+03 0.0000000000000000e+00  2.5378200231268720e+03 -1.1443187930721406e+03 0.0000000000000000e+00  2.5441556632119609e+03 -1.1438937007692505e+03 0.0000000000000000e+00  2.5499394581868837e+03 -1.1432982902824886e+03 0.0000000000000000e+00  2.5551666766306903e+03 -1.1425322802567223e+03 0.0000000000000000e+00  2.5598326027712333e+03 -1.1415953088177523e+03 0.0000000000000000e+00  2.5639325363656812e+03 -1.1404869334736370e+03 0.0000000000000000e+00  2.5674617925757411e+03 -1.1392066309943530e+03 0.0000000000000000e+00  2.5704157018377978e+03 -1.1377537972699581e+03 0.0000000000000000e+00  2.5727896097282141e+03 -1.1361277471474452e+03 0.0000000000000000e+00  2.5745788768240486e+03 -1.1343277142465054e+03 0.0000000000000000e+00  2.5757788785594717e+03 -1.1323528507544634e+03 0.0000000000000000e+00  2.5763850050781803e+03 -1.1302022272006579e+03 0.0000000000000000e+00  2.5763926610821541e+03 -1.1278748322105973e+03 0.0000000000000000e+00  2.5757972656770912e+03 -1.1253695722402344e+03 0.0000000000000000e+00  2.5745942522149194e+03 -1.1226852712907494e+03 0.0000000000000000e+00  2.5727790681337851e+03 -1.1198206706042629e+03 0.0000000000000000e+00  2.5703471747959688e+03 -1.1167744283409347e+03 0.0000000000000000e+00  2.5672940473241847e+03 -1.1135451192379453e+03 0.0000000000000000e+00  2.5636151744367821e+03 -1.1101312342508909e+03 0.0000000000000000e+00  2.5593060582823737e+03 -1.1065311801781688e+03 0.0000000000000000e+00  2.5543622142744689e+03 -1.1027432792689613e+03 0.0000000000000000e+00  2.5487791709267162e+03 -1.0987657688154763e+03 0.0000000000000000e+00  2.5425524696893985e+03 -1.0945968007301426e+03 0.0000000000000000e+00  2.5356776647878651e+03 -1.0902344411085016e+03 0.0000000000000000e+00  2.5281503230636249e+03 -1.0856766697785854e+03 0.0000000000000000e+00  2.5199660238188635e+03 -1.0809213798376079e+03 0.0000000000000000e+00  2.5111203586651882e+03 -1.0759663771768655e+03 0.0000000000000000e+00  2.5016089313774546e+03 -1.0708093799957624e+03 0.0000000000000000e+00  2.4914273577535660e+03 -1.0654480183059568e+03 0.0000000000000000e+00  2.4805712654811900e+03 -1.0598798334266496e+03 0.0000000000000000e+00  2.4690362940123769e+03 -1.0541022774721107e+03 0.0000000000000000e+00  2.4568180944471092e+03 -1.0481127128325725e+03 0.0000000000000000e+00  2.4439123294268788e+03 -1.0419084116496940e+03 0.0000000000000000e+00  2.4303146730394060e+03 -1.0354865552878343e+03 0.0000000000000000e+00  2.4160208107356975e+03 -1.0288442338024470e+03 0.0000000000000000e+00  2.4010264392606618e+03 -1.0219784454069479e+03 0.0000000000000000e+00  2.3853272665985755e+03 -1.0148860959394819e+03 0.0000000000000000e+00  2.3689190119347186e+03 -1.0075639983310564e+03 0.0000000000000000e+00  2.3517974056345656e+03 -1.0000088720765705e+03 0.0000000000000000e+00  2.3339581892419751e+03 -9.9221734271032881e+02 0.0000000000000000e+00  2.3153971154978244e+03 -9.8418594128768325e+02 0.0000000000000000e+00  2.2961099483806506e+03 -9.7591110387449430e+02 0.0000000000000000e+00  2.2760924631708481e+03 -9.6738917104616689e+02 0.0000000000000000e+00  2.3938650320722763e+03 -1.1323528507544650e+03 0.0000000000000000e+00  2.4074207067016569e+03 -1.1343277142465070e+03 0.0000000000000000e+00  2.3927666903281847e+03 -1.1439240483234692e+03 0.0000000000000000e+00  2.4204924721574644e+03 -1.1361277471474466e+03 0.0000000000000000e+00  2.4057757792658626e+03 -1.1457355867949079e+03 0.0000000000000000e+00  2.4182994473536605e+03 -1.1473720185137631e+03 0.0000000000000000e+00  2.4303327796620547e+03 -1.1488341183701330e+03 0.0000000000000000e+00  2.4418708774489878e+03 -1.1501225791057147e+03 0.0000000000000000e+00  2.4529088581099022e+03 -1.1512380115064859e+03 0.0000000000000000e+00  2.4634418551207395e+03 -1.1521809445733020e+03 0.0000000000000000e+00  2.4734650179739710e+03 -1.1529518256701915e+03 0.0000000000000000e+00  2.4829735121076592e+03 -1.1535510206501567e+03 0.0000000000000000e+00  2.4919625188276123e+03 -1.1539788139583211e+03 0.0000000000000000e+00  2.5004272352226853e+03 -1.1542354087122858e+03 0.0000000000000000e+00  2.5083628740732834e+03 -1.1543209267596026e+03 0.0000000000000000e+00  2.5157646637531593e+03 -1.1542354087122858e+03 0.0000000000000000e+00  2.5226278481245909e+03 -1.1539788139583213e+03 0.0000000000000000e+00  2.5289476864270391e+03 -1.1535510206501569e+03 0.0000000000000000e+00  2.5347194531594164e+03 -1.1529518256701913e+03 0.0000000000000000e+00  2.5399384379560997e+03 -1.1521809445733018e+03 0.0000000000000000e+00  2.5445999454568359e+03 -1.1512380115064852e+03 0.0000000000000000e+00  2.5486992951707125e+03 -1.1501225791057136e+03 0.0000000000000000e+00  2.5522318213343842e+03 -1.1488341183701309e+03 0.0000000000000000e+00  2.5551928727647673e+03 -1.1473720185137618e+03 0.0000000000000000e+00  2.5575778127064100e+03 -1.1457355867949066e+03 0.0000000000000000e+00  2.5593820186738290e+03 -1.1439240483234678e+03 0.0000000000000000e+00  2.5606008822890403e+03 -1.1419365458464372e+03 0.0000000000000000e+00  2.5612298091146158e+03 -1.1397721395118485e+03 0.0000000000000000e+00  2.5612642184825700e+03 -1.1374298066115011e+03 0.0000000000000000e+00  2.5606995433194347e+03 -1.1349084413028170e+03 0.0000000000000000e+00  2.5595312299678949e+03 -1.1322068543102087e+03 0.0000000000000000e+00  2.5577547380053893e+03 -1.1293237726063926e+03 0.0000000000000000e+00  2.5553655400601210e+03 -1.1262578390740971e+03 0.0000000000000000e+00  2.5523591216249351e+03 -1.1230076121486688e+03 0.0000000000000000e+00  2.5487309808695736e+03 -1.1195715654421128e+03 0.0000000000000000e+00  2.5444766284518341e+03 -1.1159480873491455e+03 0.0000000000000000e+00  2.5395915873282161e+03 -1.1121354806358734e+03 0.0000000000000000e+00  2.5340713925646569e+03 -1.1081319620117686e+03 0.0000000000000000e+00  2.5279115911480021e+03 -1.1039356616856405e+03 0.0000000000000000e+00  2.5211077417989059e+03 -1.0995446229063562e+03 0.0000000000000000e+00  2.5136554147868869e+03 -1.0949568014891120e+03 0.0000000000000000e+00  2.5055501917483230e+03 -1.0901700653280986e+03 0.0000000000000000e+00  2.4967876655081836e+03 -1.0851821938964629e+03 0.0000000000000000e+00  2.4873634399063776e+03 -1.0799908777345054e+03 0.0000000000000000e+00  2.4772731296296311e+03 -1.0745937179271268e+03 0.0000000000000000e+00  2.4665123600498382e+03 -1.0689882255715661e+03 0.0000000000000000e+00  2.4550767670699074e+03 -1.0631718212365477e+03 0.0000000000000000e+00  2.4429619969781588e+03 -1.0571418344140002e+03 0.0000000000000000e+00  2.4301637063123794e+03 -1.0508955029645713e+03 0.0000000000000000e+00  2.4166775617347016e+03 -1.0444299725582212e+03 0.0000000000000000e+00  2.4024992399185253e+03 -1.0377422961112329e+03 0.0000000000000000e+00  2.3876244274487462e+03 -1.0308294332210410e+03 0.0000000000000000e+00  2.3720488207366170e+03 -1.0236882496003414e+03 0.0000000000000000e+00  2.3557681259506171e+03 -1.0163155165120030e+03 0.0000000000000000e+00  2.3387780589647668e+03 -1.0087079102063622e+03 0.0000000000000000e+00  2.3210743453258724e+03 -1.0008620113625460e+03 0.0000000000000000e+00  2.3026527202412217e+03 -9.9277430453552540e+02 0.0000000000000000e+00  2.2835089285883496e+03 -9.8444117761066423e+02 0.0000000000000000e+00  2.2636387249484937e+03 -9.7585892126758358e+02 0.0000000000000000e+00  2.2430378736654388e+03 -9.6702372845522177e+02 0.0000000000000000e+00  2.3907737747680449e+03 -1.1549139859618144e+03 0.0000000000000000e+00  2.4032367964898053e+03 -1.1565600243869130e+03 0.0000000000000000e+00  2.4152130200902111e+03 -1.1580306976335598e+03 0.0000000000000000e+00  2.4266975751390783e+03 -1.1593267058394624e+03 0.0000000000000000e+00  2.4376856068664752e+03 -1.1604486662960351e+03 0.0000000000000000e+00  2.4481722760937364e+03 -1.1613971136266691e+03 0.0000000000000000e+00  2.4581527591