<?xml version="1.0"?>
<VTKFile type="UnstructuredGrid"  version="0.1"  >
<UnstructuredGrid>
<Piece  NumberOfPoints="7551" NumberOfCells="14760">
<Points>
<DataArray  type="Float64"  NumberOfComponents="3"  format="ascii">0 0 0  1 0 0  1 1 0  0 1 0  2 0 0  2 1 0  3 0 0  3 1 0  4 0 0  4 1 0  5 0 0  5 1 0  6 0 0  6 1 0  7 0 0  7 1 0  8 0 0  8 1 0  9 0 0  9 1 0  10 0 0  10 1 0  11 0 0  11 1 0  12 0 0  12 1 0  13 0 0  13 1 0  14 0 0  14 1 0  15 0 0  15 1 0  16 0 0  16 1 0  17 0 0  17 1 0  18 0 0  18 1 0  19 0 0  19 1 0  20 0 0  20 1 0  21 0 0  21 1 0  22 0 0  22 1 0  23 0 0  23 1 0  24 0 0  24 1 0  25 0 0  25 1 0  26 0 0  26 1 0  27 0 0  27 1 0  28 0 0  28 1 0  29 0 0  29 1 0  30 0 0  30 1 0  31 0 0  31 1 0  32 0 0  32 1 0  33 0 0  33 1 0  34 0 0  34 1 0  35 0 0  35 1 0  36 0 0  36 1 0  37 0 0  37 1 0  38 0 0  38 1 0  39 0 0  39 1 0  40 0 0  40 1 0  41 0 0  41 1 0  42 0 0  42 1 0  43 0 0  43 1 0  44 0 0  44 1 0  45 0 0  45 1 0  46 0 0  46 1 0  47 0 0  47 1 0  48 0 0  48 1 0  49 0 0  49 1 0  50 0 0  50 1 0  51 0 0  51 1 0  52 0 0  52 1 0  53 0 0  53 1 0  54 0 0  54 1 0  55 0 0  55 1 0  56 0 0  56 1 0  57 0 0  57 1 0  58 0 0  58 1 0  59 0 0  59 1 0  60 0 0  60 1 0  61 0 0  61 1 0  62 0 0  62 1 0  63 0 0  63 1 0  64 0 0  64 1 0  65 0 0  65 1 0  66 0 0  66 1 0  67 0 0  67 1 0  68 0 0  68 1 0  69 0 0  69 1 0  70 0 0  70 1 0  71 0 0  71 1 0  72 0 0  72 1 0  73 0 0  73 1 0  74 0 0  74 1 0  1 2 0  0 2 0  2 2 0  3 2 0  4 2 0  5 2 0  6 2 0  7 2 0  8 2 0  9 2 0  10 2 0  11 2 0  12 2 0  13 2 0  14 2 0  15 2 0  16 2 0  17 2 0  18 2 0  19 2 0  20 2 0  21 2 0  22 2 0  23 2 0  24 2 0  25 2 0  26 2 0  27 2 0  28 2 0  29 2 0  30 2 0  31 2 0  32 2 0  33 2 0  34 2 0  35 2 0  36 2 0  37 2 0  38 2 0  39 2 0  40 2 0  41 2 0  42 2 0  43 2 0  44 2 0  45 2 0  46 2 0  47 2 0  48 2 0  49 2 0  50 2 0  51 2 0  52 2 0  53 2 0  54 2 0  55 2 0  56 2 0  57 2 0  58 2 0  59 2 0  60 2 0  61 2 0  62 2 0  63 2 0  64 2 0  65 2 0  66 2 0  67 2 0  68 2 0  69 2 0  70 2 0  71 2 0  72 2 0  73 2 0  74 2 0  1 3 0  0 3 0  2 3 0  3 3 0  4 3 0  5 3 0  6 3 0  7 3 0  8 3 0  9 3 0  10 3 0  11 3 0  12 3 0  13 3 0  14 3 0  15 3 0  16 3 0  17 3 0  18 3 0  19 3 0  20 3 0  21 3 0  22 3 0  23 3 0  24 3 0  25 3 0  26 3 0  27 3 0  28 3 0  29 3 0  30 3 0  31 3 0  32 3 0  33 3 0  34 3 0  35 3 0  36 3 0  37 3 0  38 3 0  39 3 0  40 3 0  41 3 0  42 3 0  43 3 0  44 3 0  45 3 0  46 3 0  47 3 0  48 3 0  49 3 0  50 3 0  51 3 0  52 3 0  53 3 0  54 3 0  55 3 0  56 3 0  57 3 0  58 3 0  59 3 0  60 3 0  61 3 0  62 3 0  63 3 0  64 3 0  65 3 0  66 3 0  67 3 0  68 3 0  69 3 0  70 3 0  71 3 0  72 3 0  73 3 0  74 3 0  1 4 0  0 4 0  2 4 0  3 4 0  4 4 0  5 4 0  6 4 0  7 4 0  8 4 0  9 4 0  10 4 0  11 4 0  12 4 0  13 4 0  14 4 0  15 4 0  16 4 0  17 4 0  18 4 0  19 4 0  20 4 0  21 4 0  22 4 0  23 4 0  24 4 0  25 4 0  26 4 0  27 4 0  28 4 0  29 4 0  30 4 0  31 4 0  32 4 0  33 4 0  34 4 0  35 4 0  36 4 0  37 4 0  38 4 0  39 4 0  40 4 0  41 4 0  42 4 0  43 4 0  44 4 0  45 4 0  46 4 0  47 4 0  48 4 0  49 4 0  50 4 0  51 4 0  52 4 0  53 4 0  54 4 0  55 4 0  56 4 0  57 4 0  58 4 0  59 4 0  60 4 0  61 4 0  62 4 0  63 4 0  64 4 0  65 4 0  66 4 0  67 4 0  68 4 0  69 4 0  70 4 0  71 4 0  72 4 0  73 4 0  74 4 0  75 4 0  1 5 0  0 5 0  2 5 0  3 5 0  4 5 0  5 5 0  6 5 0  7 5 0  8 5 0  9 5 0  10 5 0  11 5 0  12 5 0  13 5 0  14 5 0  15 5 0  16 5 0  17 5 0  18 5 0  19 5 0  20 5 0  21 5 0  22 5 0  23 5 0  24 5 0  25 5 0  26 5 0  27 5 0  28 5 0  29 5 0  30 5 0  31 5 0  32 5 0  33 5 0  34 5 0  35 5 0  36 5 0  37 5 0  38 5 0  39 5 0  40 5 0  41 5 0  42 5 0  43 5 0  44 5 0  45 5 0  46 5 0  47 5 0  48 5 0  49 5 0  50 5 0  51 5 0  52 5 0  53 5 0  54 5 0  55 5 0  56 5 0  57 5 0  58 5 0  59 5 0  60 5 0  61 5 0  62 5 0  63 5 0  64 5 0  65 5 0  66 5 0  67 5 0  68 5 0  69 5 0  70 5 0  71 5 0  72 5 0  73 5 0  74 5 0  75 5 0  76 5 0  1 6 0  0 6 0  2 6 0  3 6 0  4 6 0  5 6 0  6 6 0  7 6 0  8 6 0  9 6 0  10 6 0  11 6 0  12 6 0  13 6 0  14 6 0  15 6 0  16 6 0  17 6 0  18 6 0  19 6 0  20 6 0  21 6 0  22 6 0  23 6 0  24 6 0  25 6 0  26 6 0  27 6 0  28 6 0  29 6 0  30 6 0  31 6 0  32 6 0  33 6 0  34 6 0  35 6 0  36 6 0  37 6 0  38 6 0  39 6 0  40 6 0  41 6 0  42 6 0  43 6 0  44 6 0  45 6 0  46 6 0  47 6 0  48 6 0  49 6 0  50 6 0  51 6 0  52 6 0  53 6 0  54 6 0  55 6 0  56 6 0  57 6 0  58 6 0  59 6 0  60 6 0  61 6 0  62 6 0  63 6 0  64 6 0  65 6 0  66 6 0  67 6 0  68 6 0  69 6 0  70 6 0  71 6 0  72 6 0  73 6 0  74 6 0  75 6 0  76 6 0  77 6 0  1 7 0  0 7 0  2 7 0  3 7 0  4 7 0  5 7 0  6 7 0  7 7 0  8 7 0  9 7 0  10 7 0  11 7 0  12 7 0  13 7 0  14 7 0  15 7 0  16 7 0  17 7 0  18 7 0  19 7 0  20 7 0  21 7 0  22 7 0  23 7 0  24 7 0  25 7 0  26 7 0  27 7 0  28 7 0  29 7 0  30 7 0  31 7 0  32 7 0  33 7 0  34 7 0  35 7 0  36 7 0  37 7 0  38 7 0  39 7 0  40 7 0  41 7 0  42 7 0  43 7 0  44 7 0  45 7 0  46 7 0  47 7 0  48 7 0  49 7 0  50 7 0  51 7 0  52 7 0  53 7 0  54 7 0  55 7 0  56 7 0  57 7 0  58 7 0  59 7 0  60 7 0  61 7 0  62 7 0  63 7 0  64 7 0  65 7 0  66 7 0  67 7 0  68 7 0  69 7 0  70 7 0  71 7 0  72 7 0  73 7 0  74 7 0  75 7 0  76 7 0  77 7 0  1 8 0  0 8 0  2 8 0  3 8 0  4 8 0  5 8 0  6 8 0  7 8 0  8 8 0  9 8 0  10 8 0  11 8 0  12 8 0  13 8 0  14 8 0  15 8 0  16 8 0  17 8 0  18 8 0  19 8 0  20 8 0  21 8 0  22 8 0  23 8 0  24 8 0  25 8 0  26 8 0  27 8 0  28 8 0  29 8 0  30 8 0  31 8 0  32 8 0  33 8 0  34 8 0  35 8 0  36 8 0  37 8 0  38 8 0  39 8 0  40 8 0  41 8 0  42 8 0  43 8 0  44 8 0  45 8 0  46 8 0  47 8 0  48 8 0  49 8 0  50 8 0  51 8 0  52 8 0  53 8 0  54 8 0  55 8 0  56 8 0  57 8 0  58 8 0  59 8 0  60 8 0  61 8 0  62 8 0  63 8 0  64 8 0  65 8 0  66 8 0  67 8 0  68 8 0  69 8 0  70 8 0  71 8 0  72 8 0  73 8 0  74 8 0  75 8 0  76 8 0  77 8 0  1 9 0  0 9 0  2 9 0  3 9 0  4 9 0  5 9 0  6 9 0  7 9 0  8 9 0  9 9 0  10 9 0  11 9 0  12 9 0  13 9 0  14 9 0  15 9 0  16 9 0  17 9 0  18 9 0  19 9 0  20 9 0  21 9 0  22 9 0  23 9 0  24 9 0  25 9 0  26 9 0  27 9 0  28 9 0  29 9 0  30 9 0  31 9 0  32 9 0  33 9 0  34 9 0  35 9 0  36 9 0  37 9 0  38 9 0  39 9 0  40 9 0  41 9 0  42 9 0  43 9 0  44 9 0  45 9 0  46 9 0  47 9 0  48 9 0  49 9 0  50 9 0  51 9 0  52 9 0  53 9 0  54 9 0  55 9 0  56 9 0  57 9 0  58 9 0  59 9 0  60 9 0  61 9 0  62 9 0  63 9 0  64 9 0  65 9 0  66 9 0  67 9 0  68 9 0  69 9 0  70 9 0  71 9 0  72 9 0  73 9 0  74 9 0  75 9 0  76 9 0  77 9 0  1 10 0  0 10 0  2 10 0  3 10 0  4 10 0  5 10 0  6 10 0  7 10 0  8 10 0  9 10 0  10 10 0  11 10 0  12 10 0  13 10 0  14 10 0  15 10 0  16 10 0  17 10 0  18 10 0  19 10 0  20 10 0  21 10 0  22 10 0  23 10 0  24 10 0  25 10 0  26 10 0  27 10 0  28 10 0  29 10 0  30 10 0  31 10 0  32 10 0  33 10 0  34 10 0  35 10 0  36 10 0  37 10 0  38 10 0  39 10 0  40 10 0  41 10 0  42 10 0  43 10 0  44 10 0  45 10 0  46 10 0  47 10 0  48 10 0  49 10 0  50 10 0  51 10 0  52 10 0  53 10 0  54 10 0  55 10 0  56 10 0  57 10 0  58 10 0  59 10 0  60 10 0  61 10 0  62 10 0  63 10 0  64 10 0  65 10 0  66 10 0  67 10 0  68 10 0  69 10 0  70 10 0  71 10 0  72 10 0  73 10 0  74 10 0  75 10 0  76 10 0  77 10 0  1 11 0  0 11 0  2 11 0  3 11 0  4 11 0  5 11 0  6 11 0  7 11 0  8 11 0  9 11 0  10 11 0  11 11 0  12 11 0  13 11 0  14 11 0  15 11 0  16 11 0  17 11 0  18 11 0  19 11 0  20 11 0  21 11 0  22 11 0  23 11 0  24 11 0  25 11 0  26 11 0  27 11 0  28 11 0  29 11 0  30 11 0  31 11 0  32 11 0  33 11 0  34 11 0  35 11 0  36 11 0  37 11 0  38 11 0  39 11 0  40 11 0  41 11 0  42 11 0  43 11 0  44 11 0  45 11 0  46 11 0  47 11 0  48 11 0  49 11 0  50 11 0  51 11 0  52 11 0  53 11 0  54 11 0  55 11 0  56 11 0  57 11 0  58 11 0  59 11 0  60 11 0  61 11 0  62 11 0  63 11 0  64 11 0  65 11 0  66 11 0  67 11 0  68 11 0  69 11 0  70 11 0  71 11 0  72 11 0  73 11 0  74 11 0  75 11 0  76 11 0  77 11 0  78 11 0  1 12 0  0 12 0  2 12 0  3 12 0  4 12 0  5 12 0  6 12 0  7 12 0  8 12 0  9 12 0  10 12 0  11 12 0  12 12 0  13 12 0  14 12 0  15 12 0  16 12 0  17 12 0  18 12 0  19 12 0  20 12 0  21 12 0  22 12 0  23 12 0  24 12 0  25 12 0  26 12 0  27 12 0  28 12 0  29 12 0  30 12 0  31 12 0  32 12 0  33 12 0  34 12 0  35 12 0  36 12 0  37 12 0  38 12 0  39 12 0  40 12 0  41 12 0  42 12 0  43 12 0  44 12 0  45 12 0  46 12 0  47 12 0  48 12 0  49 12 0  50 12 0  51 12 0  52 12 0  53 12 0  54 12 0  55 12 0  56 12 0  57 12 0  58 12 0  59 12 0  60 12 0  61 12 0  62 12 0  63 12 0  64 12 0  65 12 0  66 12 0  67 12 0  68 12 0  69 12 0  70 12 0  71 12 0  72 12 0  73 12 0  74 12 0  75 12 0  76 12 0  77 12 0  78 12 0  79 12 0  1 13 0  0 13 0  2 13 0  3 13 0  4 13 0  5 13 0  6 13 0  7 13 0  8 13 0  9 13 0  10 13 0  11 13 0  12 13 0  13 13 0  14 13 0  15 13 0  16 13 0  17 13 0  18 13 0  19 13 0  20 13 0  21 13 0  22 13 0  23 13 0  24 13 0  25 13 0  26 13 0  27 13 0  28 13 0  29 13 0  30 13 0  31 13 0  32 13 0  33 13 0  34 13 0  35 13 0  36 13 0  37 13 0  38 13 0  39 13 0  40 13 0  41 13 0  42 13 0  43 13 0  44 13 0  45 13 0  46 13 0  47 13 0  48 13 0  49 13 0  50 13 0  51 13 0  52 13 0  53 13 0  54 13 0  55 13 0  56 13 0  57 13 0  58 13 0  59 13 0  60 13 0  61 13 0  62 13 0  63 13 0  64 13 0  65 13 0  66 13 0  67 13 0  68 13 0  69 13 0  70 13 0  71 13 0  72 13 0  73 13 0  74 13 0  75 13 0  76 13 0  77 13 0  78 13 0  79 13 0  80 13 0  1 14 0  0 14 0  2 14 0  3 14 0  4 14 0  5 14 0  6 14 0  7 14 0  8 14 0  9 14 0  10 14 0  11 14 0  12 14 0  13 14 0  14 14 0  15 14 0  16 14 0  17 14 0  18 14 0  19 14 0  20 14 0  21 14 0  22 14 0  23 14 0  24 14 0  25 14 0  26 14 0  27 14 0  28 14 0  29 14 0  30 14 0  31 14 0  32 14 0  33 14 0  34 14 0  35 14 0  36 14 0  37 14 0  38 14 0  39 14 0  40 14 0  41 14 0  42 14 0  43 14 0  44 14 0  45 14 0  46 14 0  47 14 0  48 14 0  49 14 0  50 14 0  51 14 0  52 14 0  53 14 0  54 14 0  55 14 0  56 14 0  57 14 0  58 14 0  59 14 0  60 14 0  61 14 0  62 14 0  63 14 0  64 14 0  65 14 0  66 14 0  67 14 0  68 14 0  69 14 0  70 14 0  71 14 0  72 14 0  73 14 0  74 14 0  75 14 0  76 14 0  77 14 0  78 14 0  79 14 0  80 14 0  81 14 0  1 15 0  0 15 0  2 15 0  3 15 0  4 15 0  5 15 0  6 15 0  7 15 0  8 15 0  9 15 0  10 15 0  11 15 0  12 15 0  13 15 0  14 15 0  15 15 0  16 15 0  17 15 0  18 15 0  19 15 0  20 15 0  21 15 0  22 15 0  23 15 0  24 
[...]
<PointData  Vectors="f_85"> 
<DataArray  type="Float64"  Name="f_85"  NumberOfComponents="3" format="ascii">0.0000000000000000e+00 0.0000000000000000e+00 0.0000000000000000e+00  0.0000000000000000e+00 0.0000000000000000e+00 0.0000000000000000e+00  7.3771510853698619e-01 2.9170804636778374e+00 0.0000000000000000e+00  0.0000000000000000e+00 0.0000000000000000e+00 0.0000000000000000e+00  0.0000000000000000e+00 0.0000000000000000e+00 0.0000000000000000e+00  1.4753210243963317e+00 5.3344742087391168e+00 0.0000000000000000e+00  0.0000000000000000e+00 0.0000000000000000e+00 0.0000000000000000e+00  2.2127085603703076e+00 7.4500414581739225e+00 0.0000000000000000e+00  0.0000000000000000e+00 0.0000000000000000e+00 0.0000000000000000e+00  2.9497685401880815e+00 9.3569185705871565e+00 0.0000000000000000e+00  0.0000000000000000e+00 0.0000000000000000e+00 0.0000000000000000e+00  3.6863918039768619e+00 1.1106157003020199e+01 0.0000000000000000e+00  0.0000000000000000e+00 0.0000000000000000e+00 0.0000000000000000e+00  4.4224692137142512e+00 1.2729268193019239e+01 0.0000000000000000e+00  0.0000000000000000e+00 0.0000000000000000e+00 0.0000000000000000e+00  5.1578916586688912e+00 1.4247477752660242e+01 0.0000000000000000e+00  0.0000000000000000e+00 0.0000000000000000e+00 0.0000000000000000e+00  5.8925500608264425e+00 1.5676021012610333e+01 0.0000000000000000e+00  0.0000000000000000e+00 0.0000000000000000e+00 0.0000000000000000e+00  6.6263353802979248e+00 1.7026359998900766e+01 0.0000000000000000e+00  0.0000000000000000e+00 0.0000000000000000e+00 0.0000000000000000e+00  7.3591386207074816e+00 1.8307431595695991e+01 0.0000000000000000e+00  0.0000000000000000e+00 0.0000000000000000e+00 0.0000000000000000e+00  8.0908508345565320e+00 1.9526401029694039e+01 0.0000000000000000e+00  0.0000000000000000e+00 0.0000000000000000e+00 0.0000000000000000e+00  8.8213631285613321e+00 2.0689142871674818e+01 0.0000000000000000e+00  0.0000000000000000e+00 0.0000000000000000e+00 0.0000000000000000e+00  9.5505666689608848e+00 2.1800562298159583e+01 0.0000000000000000e+00  0.0000000000000000e+00 0.0000000000000000e+00 0.0000000000000000e+00  1.0278352686792150e+01 2.2864817779451286e+01 0.0000000000000000e+00  0.0000000000000000e+00 0.0000000000000000e+00 0.0000000000000000e+00  1.1004612483129495e+01 2.3885480291569529e+01 0.0000000000000000e+00  0.0000000000000000e+00 0.0000000000000000e+00 0.0000000000000000e+00  1.1729237434285206e+01 2.4865650162746913e+01 0.0000000000000000e+00  0.0000000000000000e+00 0.0000000000000000e+00 0.0000000000000000e+00  1.2452118996967965e+01 2.5808044769602709e+01 0.0000000000000000e+00  0.0000000000000000e+00 0.0000000000000000e+00 0.0000000000000000e+00  1.3173148713396062e+01 2.6715065643253023e+01 0.0000000000000000e+00  0.0000000000000000e+00 0.0000000000000000e+00 0.0000000000000000e+00  1.3892218216362144e+01 2.7588850696715554e+01 0.0000000000000000e+00  0.0000000000000000e+00 0.0000000000000000e+00 0.0000000000000000e+00  1.4609219234246234e+01 2.8431315483759903e+01 0.0000000000000000e+00  0.0000000000000000e+00 0.0000000000000000e+00 0.0000000000000000e+00  1.5324043595973652e+01 2.9244186227657575e+01 0.0000000000000000e+00  0.0000000000000000e+00 0.0000000000000000e+00 0.0000000000000000e+00  1.6036583235914563e+01 3.0029026576687492e+01 0.0000000000000000e+00  0.0000000000000000e+00 0.0000000000000000e+00 0.0000000000000000e+00  1.6746730198721632e+01 3.0787259510088777e+01 0.0000000000000000e+00  0.0000000000000000e+00 0.0000000000000000e+00 0.0000000000000000e+00  1.7454376644102375e+01 3.1520185447108140e+01 0.0000000000000000e+00  0.0000000000000000e+00 0.0000000000000000e+00 0.0000000000000000e+00  1.8159414851522726e+01 3.2228997348877229e+01 0.0000000000000000e+00  0.0000000000000000e+00 0.0000000000000000e+00 0.0000000000000000e+00  1.8861737224838038e+01 3.2914793413500078e+01 0.0000000000000000e+00  0.0000000000000000e+00 0.0000000000000000e+00 0.0000000000000000e+00  1.9561236296848111e+01 3.3578587826318753e+01 0.0000000000000000e+00  0.0000000000000000e+00 0.0000000000000000e+00 0.0000000000000000e+00  2.0257804733772293e+01 3.4221319924770505e+01 0.0000000000000000e+00  0.0000000000000000e+00 0.0000000000000000e+00 0.0000000000000000e+00  2.0951335339640952e+01 3.4843862060315942e+01 0.0000000000000000e+00  0.0000000000000000e+00 0.0000000000000000e+00 0.0000000000000000e+00  2.1641721060599469e+01 3.5447026381539267e+01 0.0000000000000000e+00  0.0000000000000000e+00 0.0000000000000000e+00 0.0000000000000000e+00  2.2328854989120646e+01 3.6031570717755223e+01 0.0000000000000000e+00  0.0000000000000000e+00 0.0000000000000000e+00 0.0000000000000000e+00  2.3012630368121638e+01 3.6598203707790951e+01 0.0000000000000000e+00  0.0000000000000000e+00 0.0000000000000000e+00 0.0000000000000000e+00  2.3692940594981106e+01 3.7147589291522223e+01 0.0000000000000000e+00  0.0000000000000000e+00 0.0000000000000000e+00 0.0000000000000000e+00  2.4369679225452412e+01 3.7680350660395320e+01 0.0000000000000000e+00  0.0000000000000000e+00 0.0000000000000000e+00 0.0000000000000000e+00  2.5042739977468553e+01 3.8197073746209369e+01 0.0000000000000000e+00  0.0000000000000000e+00 0.0000000000000000e+00 0.0000000000000000e+00  2.5712016734834251e+01 3.8698310313865349e+01 0.0000000000000000e+00  0.0000000000000000e+00 0.0000000000000000e+00 0.0000000000000000e+00  2.6377403550800704e+01 3.9184580712854832e+01 0.0000000000000000e+00  0.0000000000000000e+00 0.0000000000000000e+00 0.0000000000000000e+00  2.7038794651518288e+01 3.9656376333395492e+01 0.0000000000000000e+00  0.0000000000000000e+00 0.0000000000000000e+00 0.0000000000000000e+00  2.7696084439362352e+01 4.0114161805884422e+01 0.0000000000000000e+00  0.0000000000000000e+00 0.0000000000000000e+00 0.0000000000000000e+00  2.8349167496127201e+01 4.0558376976402990e+01 0.0000000000000000e+00  0.0000000000000000e+00 0.0000000000000000e+00 0.0000000000000000e+00  2.8997938586083084e+01 4.0989438686106197e+01 0.0000000000000000e+00  0.0000000000000000e+00 0.0000000000000000e+00 0.0000000000000000e+00  2.9642292658891048e+01 4.1407742378265084e+01 0.0000000000000000e+00  0.0000000000000000e+00 0.0000000000000000e+00 0.0000000000000000e+00  3.0282124852370114e+01 4.1813663553342238e+01 0.0000000000000000e+00  0.0000000000000000e+00 0.0000000000000000e+00 0.0000000000000000e+00  3.0917330495111358e+01 4.2207559089643517e+01 0.0000000000000000e+00  0.0000000000000000e+00 0.0000000000000000e+00 0.0000000000000000e+00  3.1547805108933016e+01 4.2589768444701718e+01 0.0000000000000000e+00  0.0000000000000000e+00 0.0000000000000000e+00 0.0000000000000000e+00  3.2173444411170763e+01 4.2960614750531946e+01 0.0000000000000000e+00  0.0000000000000000e+00 0.0000000000000000e+00 0.0000000000000000e+00  3.2794144316797109e+01 4.3320405814189122e+01 0.0000000000000000e+00  0.0000000000000000e+00 0.0000000000000000e+00 0.0000000000000000e+00  3.3409800940363418e+01 4.3669435033601516e+01 0.0000000000000000e+00  0.0000000000000000e+00 0.0000000000000000e+00 0.0000000000000000e+00  3.4020310597758233e+01 4.4007982237410914e+01 0.0000000000000000e+00  0.0000000000000000e+00 0.0000000000000000e+00 0.0000000000000000e+00  3.4625569807775022e+01 4.4336314456483372e+01 0.0000000000000000e+00  0.0000000000000000e+00 0.0000000000000000e+00 0.0000000000000000e+00  3.5225475293482361e+01 4.4654686633836882e+01 0.0000000000000000e+00  0.0000000000000000e+00 0.0000000000000000e+00 0.0000000000000000e+00  3.5819923983389543e+01 4.4963342278940310e+01 0.0000000000000000e+00  0.0000000000000000e+00 0.0000000000000000e+00 0.0000000000000000e+00  3.6408813012399712e+01 4.5262514071652404e+01 0.0000000000000000e+00  0.0000000000000000e+00 0.0000000000000000e+00 0.0000000000000000e+00  3.6992039722543218e+01 4.5552424420474317e+01 0.0000000000000000e+00  0.0000000000000000e+00 0.0000000000000000e+00 0.0000000000000000e+00  3.7569501663482896e+01 4.5833285979270642e+01 0.0000000000000000e+00  0.0000000000000000e+00 0.0000000000000000e+00 0.0000000000000000e+00  3.8141096592782922e+01 4.6105302126161526e+01 0.0000000000000000e+00  0.0000000000000000e+00 0.0000000000000000e+00 0.0000000000000000e+00  3.8706722475932679e+01 4.6368667407891500e+01 0.0000000000000000e+00  0.0000000000000000e+00 0.0000000000000000e+00 0.0000000000000000e+00  3.9266277486116628e+01 4.6623567952633977e+01 0.0000000000000000e+00  0.0000000000000000e+00 0.0000000000000000e+00 0.0000000000000000e+00  3.9819660003720834e+01 4.6870181853883111e+01 0.0000000000000000e+00  0.0000000000000000e+00 0.0000000000000000e+00 0.0000000000000000e+00  4.0366768615566343e+01 4.7108679527815688e+01 0.0000000000000000e+00  0.0000000000000000e+00 0.0000000000000000e+00 0.0000000000000000e+00  4.0907502113859380e+01 4.7339224046266679e+01 0.0000000000000000e+00  0.0000000000000000e+00 0.0000000000000000e+00 0.0000000000000000e+00  4.1441759494847972e+01 4.7561971447251103e+01 0.0000000000000000e+00  0.0000000000000000e+00 0.0000000000000000e+00 0.0000000000000000e+00  4.1969439957173748e+01 4.7777071024776760e+01 0.0000000000000000e+00  0.0000000000000000e+00 0.0000000000000000e+00 0.0000000000000000e+00  4.2490442899907769e+01 4.7984665599525698e+01 0.0000000000000000e+00  0.0000000000000000e+00 0.0000000000000000e+00 0.0000000000000000e+00  4.3004667920258434e+01 4.8184891771833449e+01 0.0000000000000000e+00  0.0000000000000000e+00 0.0000000000000000e+00 0.0000000000000000e+00  4.3512014810938993e+01 4.8377880158261853e+01 0.0000000000000000e+00  0.0000000000000000e+00 0.0000000000000000e+00 0.0000000000000000e+00  4.4012383557181671e+01 4.8563755612942444e+01 0.0000000000000000e+00  0.0000000000000000e+00 0.0000000000000000e+00 0.0000000000000000e+00  4.4505674333385201e+01 4.8742637434760780e+01 0.0000000000000000e+00  0.0000000000000000e+00 0.0000000000000000e+00 0.0000000000000000e+00  4.4991787499381282e+01 4.8914639561355663e+01 0.0000000000000000e+00  0.0000000000000000e+00 0.0000000000000000e+00 0.0000000000000000e+00  4.5470623596305416e+01 4.9079870750821385e+01 0.0000000000000000e+00  0.0000000000000000e+00 0.0000000000000000e+00 0.0000000000000000e+00  4.5942083342056748e+01 4.9238434751923229e+01 0.0000000000000000e+00  0.0000000000000000e+00 0.0000000000000000e+00 0.0000000000000000e+00  4.6406067626330618e+01 4.9390430463565757e+01 0.0000000000000000e+00  0.0000000000000000e+00 0.0000000000000000e+00 0.0000000000000000e+00  4.6862477505207139e+01 4.9535952084189972e+01 0.0000000000000000e+00  0.0000000000000000e+00 0.0000000000000000e+00 0.0000000000000000e+00  4.7311214195277955e+01 4.9675089251717949e+01 0.0000000000000000e+00  1.4655396597491130e+00 5.3339059784444602e+00 0.0000000000000000e+00  0.0000000000000000e+00 0.0000000000000000e+00 0.0000000000000000e+00  2.9308619286397009e+00 9.9708332455769355e+00 0.0000000000000000e+00  4.3957494266559891e+00 1.4108831385841642e+01 0.0000000000000000e+00  5.8599847954618625e+00 1.7871534153626730e+01 0.0000000000000000e+00  7.3233507092261236e+00 2.1338499580946635e+01 0.0000000000000000e+00  8.7856298854301933e+00 2.4563496348868746e+01 0.0000000000000000e+00  1.0246605095652459e+01 2.7584680137483627e+01 0.0000000000000000e+00  1.1706059176323341e+01 3.0430304631352538e+01 0.0000000000000000e+00  1.3163775039445175e+01 3.3122045719768977e+01 0.0000000000000000e+00  1.4619535683271005e+01 3.5677023686661386e+01 0.0000000000000000e+00  1.6073124202936267e+01 3.8109087983877565e+01 0.0000000000000000e+00  1.7524323801037397e+01 4.0429666491317874e+01 0.0000000000000000e+00  1.8972917798151272e+01 4.2648346873984451e+01 0.0000000000000000e+00  2.0418689643289387e+01 4.4773286860548261e+01 0.0000000000000000e+00  2.1861422924280642e+01 4.6811511556552119e+01 0.0000000000000000e+00  2.3300901378076418e+01 4.8769133922287651e+01 0.0000000000000000e+00  2.4736908900971812e+01 5.0651521604883143e+01 0.0000000000000000e+00  2.6169229558736451e+01 5.2463425439166024e+01 0.0000000000000000e+00  2.7597647596648656e+01 5.4209079992321520e+01 0.0000000000000000e+00  2.9021947449426314e+01 5.5892283343138722e+01 0.0000000000000000e+00  3.0441913751047753e+01 5.7516461182655092e+01 0.0000000000000000e+00  3.1857331344456224e+01 5.9084718901475846e+01 0.0000000000000000e+00  3.3267985291140732e+01 6.0599884349031683e+01 0.0000000000000000e+00  3.4673660880586617e+01 6.2064543261938766e+01 0.0000000000000000e+00  3.6074143639588733e+01 6.3481068867372883e+01 0.0000000000000000e+00  3.7469219341419937e+01 6.4851646811276581e+01 0.0000000000000000e+00  3.8858674014847850e+01 6.6178296299476685e+01 0.0000000000000000e+00  4.0242293952992036e+01 6.7462888144919575e+01 0.0000000000000000e+00  4.1619865722014481e+01 6.8707160267426204e+01 0.0000000000000000e+00  4.2991176169635104e+01 6.9912731080558117e+01 0.0000000000000000e+00  4.4356012433464848e+01 7.1081111114162880e+01 0.0000000000000000e+00  4.5714161949147950e+01 7.2213713154358587e+01 0.0000000000000000e+00  4.7065412458305055e+01 7.3311861130374837e+01 0.0000000000000000e+00  4.8409552016269011e+01 7.4376797936321879e+01 0.0000000000000000e+00  4.9746368999604293e+01 7.5409692343049045e+01 0.0000000000000000e+00  5.1075652113401468e+01 7.6411645128869381e+01 0.0000000000000000e+00  5.2397190398337202e+01 7.7383694536630713e+01 0.0000000000000000e+00  5.3710773237490699e+01 7.8326821147314917e+01 0.0000000000000000e+00  5.5016190362906990e+01 7.9241952246211412e+01 0.0000000000000000e+00  5.6313231861896732e+01 8.0129965746093546e+01 0.0000000000000000e+00  5.7601688183062983e+01 8.0991693722228973e+01 0.0000000000000000e+00  5.8881350142043850e+01 8.1827925606084108e+01 0.0000000000000000e+00  6.0152008926960612e+01 8.2639411077932536e+01 0.0000000000000000e+00  6.1413456103560009e+01 8.3426862693002349e+01 0.0000000000000000e+00  6.2665483620039396e+01 8.4190958271103611e+01 0.0000000000000000e+00  6.3907883811542639e+01 8.4932343075709156e+01 0.0000000000000000e+00  6.5140449404314964e+01 8.5651631805095278e+01 0.0000000000000000e+00  6.6362973519503811e+01 8.6349410415278271e+01 0.0000000000000000e+00  6.7575249676592676e+01 8.7026237792030983e+01 0.0000000000000000e+00  6.8777071796454763e+01 8.7682647287157891e+01 0.0000000000000000e+00  6.9968234204012148e+01 8.8319148132396052e+01 0.0000000000000000e+00  7.1148531630486346e+01 8.8936226742744182e+01 0.0000000000000000e+00  7.2317759215225010e+01 8.9534347919667212e+01 0.0000000000000000e+00  7.3475712507089469e+01 9.0113955963446429e+01 0.0000000000000000e+00  7.4622187465387199e+01 9.0675475702919030e+01 0.0000000000000000e+00  7.5756980460332144e+01 9.1219313449956189e+01 0.0000000000000000e+00  7.6879888273015936e+01 9.1745857885242700e+01 0.0000000000000000e+00  7.7990708094872033e+01 9.2255480881233467e+01 0.0000000000000000e+00  7.9089237526613999e+01 9.2748538267555034e+01 0.0000000000000000e+00  8.0175274576628354e+01 9.3225370543585171e+01 0.0000000000000000e+00  8.1248617658802303e+01 9.3686303542472132e+01 0.0000000000000000e+00  8.2309065589764984e+01 9.4131649050433168e+01 0.0000000000000000e+00  8.3356417585520248e+01 9.4561705384802423e+01 0.0000000000000000e+00  8.4390473257448591e+01 9.4976757933964805e+01 0.0000000000000000e+00  8.5411032607654207e+01 9.5377079662018488e+01 0.0000000000000000e+00  8.6417896023632480e+01 9.5762931580743683e+01 0.0000000000000000e+00  8.7410864272231890e+01 9.6134563191219343e+01 0.0000000000000000e+00  8.8389738492883765e+01 9.6492212897217271e+01 0.0000000000000000e+00  8.9354320190071348e+01 9.6836108392312696e+01 0.0000000000000000e+00  9.0304411225008749e+01 9.7166467022478827e+01 0.0000000000000000e+00  9.1239813806499399e+01 9.7483496125778018e+01 0.0000000000000000e+00  9.2160330480941099e+01 9.7787393350622068e+01 0.0000000000000000e+00  9.3065764121444730e+01 9.8078346953948383e+01 0.0000000000000000e+00  9.3955917916030870e+01 9.8356536080543307e+01 0.0000000000000000e+00  2.1835818518172645e+00 7.4479185294954355e+00 0.0000000000000000e+00  0.0000000000000000e+00 0.0000000000000000e+00 0.0000000000000000e+00  4.3668391037190366e+00 1.4106329734254889e+01 0.0000000000000000e+00  6.5494471719112521e+00 2.0143125010961338e+01 0.0000000000000000e+00  8.7310815048339663e+00 2.5682095402103876e+01 0.0000000000000000e+00  1.0911417599256588e+01 3.0813019143243245e+01 0.0000000000000000e+00  1.3090131016346882e+01 3.5601745808997855e+01 0.0000000000000000e+00  1.5266897397705002e+01 4.0097650142025365e+01 0.0000000000000000e+00  1.7441392481353674e+01 4.4338679980519601e+01 0.0000000000000000e+00  1.9613292117675833e+01 4.8354702887133605e+01 0.0000000000000000e+00  2.1782272285290635e+01 5.2169737772275376e+01 0.0000000000000000e+00  2.3948009106859086e+01 5.5803469052809334e+01 0.0000000000000000e+00  2.6110178864810209e+01 5.9272296560707041e+01 0.0000000000000000e+00  2.8268458016978649e+01 6.2590080170884441e+01 0.0000000000000000e+00  3.0422523212144675e+01 6.5768679557177606e+01 0.0000000000000000e+00  3.2572051305467276e+01 6.8818353476775386e+01 0.0000000000000000e+00  3.4716719373801062e+01 7.1748060689940800e+01 0.0000000000000000e+00  3.6856204730887626e+01 7.4565690613448567e+01 0.0000000000000000e+00  3.8990184942411595e+01 7.7278242841178781e+01 0.0000000000000000e+00  4.1118337840912126e+01 7.9891968815238201e+01 0.0000000000000000e+00  4.3240341540539767e+01 8.2412485038790734e+01 0.0000000000000000e+00  4.5355874451648781e+01 8.4844864583320572e+01 0.0000000000000000e+00  4.7464615295215133e+01 8.7193711822501527e+01 0.0000000000000000e+00  4.9566243117069646e+01 8.9463224047595759e+01 0.0000000000000000e+00  5.1660437301936142e+01 9.1657242709214742e+01 0.0000000000000000e+00  5.3746877587263917e+01 9.3779296372371320e+01 0.0000000000000000e+00  5.5825244076843781e+01 9.5832636989729039e+01 0.0000000000000000e+00  5.7895217254197028e+01 9.7820270740364208e+01 0.0000000000000000e+00  5.9956477995725507e+01 9.9744984412977260e+01 0.0000000000000000e+00  6.2008707583612228e+01 1.0160936810888356e+02 0.0000000000000000e+00  6.4051587718460425e+01 1.0341583488407652e+02 0.0000000000000000e+00  6.6084800531659113e+01 1.0516663782895199e+02 0.0000000000000000e+00  6.8108028597463402e+01 1.0686388499007801e+02 0.0000000000000000e+00  7.0120954944776869e+01 1.0850955246426901e+02 0.0000000000000000e+00  7.2123263068623274e+01 1.1010549593644065e+02 0.0000000000000000e+00  7.4114636941294933e+01 1.1165346088576791e+02 0.0000000000000000e+00  7.6094761023163898e+01 1.1315509164690482e+02 0.0000000000000000e+00  7.8063320273142850e+01 1.1461193948245609e+02 0.0000000000000000e+00  8.0020000158780974e+01 1.1602546979799448e+02 0.0000000000000000e+00  8.1964486665981184e+01 1.1739706861052511e+02 0.0000000000000000e+00  8.3896466308323113e+01 1.1872804836450317e+02 0.0000000000000000e+00  8.5815626135977141e+01 1.2001965317560442e+02 0.0000000000000000e+00  8.7721653744193659e+01 1.2127306357088219e+02 0.0000000000000000e+00  8.9614237281351038e+01 1.2248940078427380e+02 0.0000000000000000e+00  9.1493065456546418e+01 1.2366973065830219e+02 0.0000000000000000e+00  9.3357827546711391e+01 1.2481506719597358e+02 0.0000000000000000e+00  9.5208213403235121e+01 1.2592637580107817e+02 0.0000000000000000e+00  9.7043913458077071e+01 1.2700457624017686e+02 0.0000000000000000e+00  9.8864618729349687e+01 1.2805054535535766e+02 0.0000000000000000e+00  1.0067002082635209e+02 1.2906511955324922e+02 0.0000000000000000e+00  1.0245981195403448e+02 1.3004909709269353e+02 0.0000000000000000e+00  1.0423368491687238e+02 1.3100324019081765e+02 0.0000000000000000e+00  1.0599133312212899e+02 1.3192827696494550e+02 0.0000000000000000e+00  1.0773245058248344e+02 1.3282490322579827e+02 0.0000000000000000e+00  1.0945673191800167e+02 1.3369378413569748e+02 0.0000000000000000e+00  1.1116387235742602e+02 1.3453555574397518e+02 0.0000000000000000e+00  1.1285356773875847e+02 1.3535082641047381e+02 0.0000000000000000e+00  1.1452551450911162e+02 1.3614017812686203e+02 0.0000000000000000e+00  1.1617940972380065e+02 1.3690416774447473e+02 0.0000000000000000e+00  1.1781495104