<?xml version="1.0"?>
<VTKFile type="UnstructuredGrid"  version="0.1"  >
<UnstructuredGrid>
<Piece  NumberOfPoints="7459" NumberOfCells="14509">
<Points>
<DataArray  type="Float64"  NumberOfComponents="3"  format="ascii">0 52 0  1 52 0  1 53 0  0 53 0  2 53 0  1 54 0  0 54 0  2 54 0  1 55 0  0 55 0  2 55 0  3 55 0  1 56 0  0 56 0  2 56 0  3 56 0  4 55 0  4 56 0  5 56 0  1 57 0  0 57 0  2 57 0  3 57 0  4 57 0  5 57 0  6 57 0  1 58 0  0 58 0  2 58 0  3 58 0  4 58 0  5 58 0  6 58 0  7 58 0  1 59 0  0 59 0  2 59 0  3 59 0  4 59 0  5 59 0  6 59 0  7 59 0  8 58 0  8 59 0  9 59 0  1 60 0  0 60 0  2 60 0  3 60 0  4 60 0  5 60 0  6 60 0  7 60 0  8 60 0  9 60 0  10 60 0  1 61 0  0 61 0  2 61 0  3 61 0  4 61 0  5 61 0  6 61 0  7 61 0  8 61 0  9 61 0  10 61 0  11 60 0  11 61 0  12 60 0  12 61 0  13 60 0  13 61 0  14 61 0  1 62 0  0 62 0  2 62 0  3 62 0  4 62 0  5 62 0  6 62 0  7 62 0  8 62 0  9 62 0  10 62 0  11 62 0  12 62 0  13 62 0  14 62 0  15 62 0  1 63 0  0 63 0  2 63 0  3 63 0  4 63 0  5 63 0  6 63 0  7 63 0  8 63 0  9 63 0  10 63 0  11 63 0  12 63 0  13 63 0  14 63 0  15 63 0  16 63 0  1 64 0  0 64 0  2 64 0  3 64 0  4 64 0  5 64 0  6 64 0  7 64 0  8 64 0  9 64 0  10 64 0  11 64 0  12 64 0  13 64 0  14 64 0  15 64 0  16 64 0  17 64 0  1 65 0  0 65 0  2 65 0  3 65 0  4 65 0  5 65 0  6 65 0  7 65 0  8 65 0  9 65 0  10 65 0  11 65 0  12 65 0  13 65 0  14 65 0  15 65 0  16 65 0  17 65 0  18 65 0  1 66 0  0 66 0  2 66 0  3 66 0  4 66 0  5 66 0  6 66 0  7 66 0  8 66 0  9 66 0  10 66 0  11 66 0  12 66 0  13 66 0  14 66 0  15 66 0  16 66 0  17 66 0  18 66 0  1 67 0  0 67 0  2 67 0  3 67 0  4 67 0  5 67 0  6 67 0  7 67 0  8 67 0  9 67 0  10 67 0  11 67 0  12 67 0  13 67 0  14 67 0  15 67 0  16 67 0  17 67 0  18 67 0  19 67 0  1 68 0  0 68 0  2 68 0  3 68 0  4 68 0  5 68 0  6 68 0  7 68 0  8 68 0  9 68 0  10 68 0  11 68 0  12 68 0  13 68 0  14 68 0  15 68 0  16 68 0  17 68 0  18 68 0  19 68 0  20 68 0  1 69 0  0 69 0  2 69 0  3 69 0  4 69 0  5 69 0  6 69 0  7 69 0  8 69 0  9 69 0  10 69 0  11 69 0  12 69 0  13 69 0  14 69 0  15 69 0  16 69 0  17 69 0  18 69 0  19 69 0  20 69 0  21 68 0  21 69 0  22 69 0  1 70 0  0 70 0  2 70 0  3 70 0  4 70 0  5 70 0  6 70 0  7 70 0  8 70 0  9 70 0  10 70 0  11 70 0  12 70 0  13 70 0  14 70 0  15 70 0  16 70 0  17 70 0  18 70 0  19 70 0  20 70 0  21 70 0  22 70 0  23 70 0  1 71 0  0 71 0  2 71 0  3 71 0  4 71 0  5 71 0  6 71 0  7 71 0  8 71 0  9 71 0  10 71 0  11 71 0  12 71 0  13 71 0  14 71 0  15 71 0  16 71 0  17 71 0  18 71 0  19 71 0  20 71 0  21 71 0  22 71 0  23 71 0  24 70 0  24 71 0  25 71 0  1 72 0  0 72 0  2 72 0  3 72 0  4 72 0  5 72 0  6 72 0  7 72 0  8 72 0  9 72 0  10 72 0  11 72 0  12 72 0  13 72 0  14 72 0  15 72 0  16 72 0  17 72 0  18 72 0  19 72 0  20 72 0  21 72 0  22 72 0  23 72 0  24 72 0  25 72 0  26 72 0  1 73 0  0 73 0  2 73 0  3 73 0  4 73 0  5 73 0  6 73 0  7 73 0  8 73 0  9 73 0  10 73 0  11 73 0  12 73 0  13 73 0  14 73 0  15 73 0  16 73 0  17 73 0  18 73 0  19 73 0  20 73 0  21 73 0  22 73 0  23 73 0  24 73 0  25 73 0  26 73 0  27 73 0  1 74 0  0 74 0  2 74 0  3 74 0  4 74 0  5 74 0  6 74 0  7 74 0  8 74 0  9 74 0  10 74 0  11 74 0  12 74 0  13 74 0  14 74 0  15 74 0  16 74 0  17 74 0  18 74 0  19 74 0  20 74 0  21 74 0  22 74 0  23 74 0  24 74 0  25 74 0  26 74 0  27 74 0  28 74 0  1 75 0  0 75 0  2 75 0  3 75 0  4 75 0  5 75 0  6 75 0  7 75 0  8 75 0  9 75 0  10 75 0  11 75 0  12 75 0  13 75 0  14 75 0  15 75 0  16 75 0  17 75 0  18 75 0  19 75 0  20 75 0  21 75 0  22 75 0  23 75 0  24 75 0  25 75 0  26 75 0  27 75 0  28 75 0  29 75 0  32 74 0  33 74 0  33 75 0  32 75 0  34 75 0  34 74 0  35 75 0  35 74 0  36 75 0  1 76 0  0 76 0  2 76 0  3 76 0  4 76 0  5 76 0  6 76 0  7 76 0  8 76 0  9 76 0  10 76 0  11 76 0  12 76 0  13 76 0  14 76 0  15 76 0  16 76 0  17 76 0  18 76 0  19 76 0  20 76 0  21 76 0  22 76 0  23 76 0  24 76 0  25 76 0  26 76 0  27 76 0  28 76 0  29 76 0  30 75 0  30 76 0  31 75 0  31 76 0  32 76 0  33 76 0  34 76 0  35 76 0  36 76 0  37 76 0  1 77 0  0 77 0  2 77 0  3 77 0  4 77 0  5 77 0  6 77 0  7 77 0  8 77 0  9 77 0  10 77 0  11 77 0  12 77 0  13 77 0  14 77 0  15 77 0  16 77 0  17 77 0  18 77 0  19 77 0  20 77 0  21 77 0  22 77 0  23 77 0  24 77 0  25 77 0  26 77 0  27 77 0  28 77 0  29 77 0  30 77 0  31 77 0  32 77 0  33 77 0  34 77 0  35 77 0  36 77 0  37 77 0  38 77 0  1 78 0  0 78 0  2 78 0  3 78 0  4 78 0  5 78 0  6 78 0  7 78 0  8 78 0  9 78 0  10 78 0  11 78 0  12 78 0  13 78 0  14 78 0  15 78 0  16 78 0  17 78 0  18 78 0  19 78 0  20 78 0  21 78 0  22 78 0  23 78 0  24 78 0  25 78 0  26 78 0  27 78 0  28 78 0  29 78 0  30 78 0  31 78 0  32 78 0  33 78 0  34 78 0  35 78 0  36 78 0  37 78 0  38 78 0  39 77 0  39 78 0  40 77 0  40 78 0  41 78 0  1 79 0  0 79 0  2 79 0  3 79 0  4 79 0  5 79 0  6 79 0  7 79 0  8 79 0  9 79 0  10 79 0  11 79 0  12 79 0  13 79 0  14 79 0  15 79 0  16 79 0  17 79 0  18 79 0  19 79 0  20 79 0  21 79 0  22 79 0  23 79 0  24 79 0  25 79 0  26 79 0  27 79 0  28 79 0  29 79 0  30 79 0  31 79 0  32 79 0  33 79 0  34 79 0  35 79 0  36 79 0  37 79 0  38 79 0  39 79 0  40 79 0  41 79 0  42 79 0  1 80 0  0 80 0  2 80 0  3 80 0  4 80 0  5 80 0  6 80 0  7 80 0  8 80 0  9 80 0  10 80 0  11 80 0  12 80 0  13 80 0  14 80 0  15 80 0  16 80 0  17 80 0  18 80 0  19 80 0  20 80 0  21 80 0  22 80 0  23 80 0  24 80 0  25 80 0  26 80 0  27 80 0  28 80 0  29 80 0  30 80 0  31 80 0  32 80 0  33 80 0  34 80 0  35 80 0  36 80 0  37 80 0  38 80 0  39 80 0  40 80 0  41 80 0  42 80 0  43 80 0  1 81 0  0 81 0  2 81 0  3 81 0  4 81 0  5 81 0  6 81 0  7 81 0  8 81 0  9 81 0  10 81 0  11 81 0  12 81 0  13 81 0  14 81 0  15 81 0  16 81 0  17 81 0  18 81 0  19 81 0  20 81 0  21 81 0  22 81 0  23 81 0  24 81 0  25 81 0  26 81 0  27 81 0  28 81 0  29 81 0  30 81 0  31 81 0  32 81 0  33 81 0  34 81 0  35 81 0  36 81 0  37 81 0  38 81 0  39 81 0  40 81 0  41 81 0  42 81 0  43 81 0  44 80 0  44 81 0  45 80 0  45 81 0  46 80 0  46 81 0  47 81 0  50 80 0  51 80 0  51 81 0  50 81 0  52 80 0  52 81 0  53 80 0  53 81 0  54 80 0  54 81 0  55 80 0  55 81 0  56 80 0  56 81 0  57 80 0  57 81 0  58 80 0  58 81 0  59 80 0  59 81 0  60 80 0  60 81 0  61 80 0  61 81 0  62 81 0  1 82 0  0 82 0  2 82 0  3 82 0  4 82 0  5 82 0  6 82 0  7 82 0  8 82 0  9 82 0  10 82 0  11 82 0  12 82 0  13 82 0  14 82 0  15 82 0  16 82 0  17 82 0  18 82 0  19 82 0  20 82 0  21 82 0  22 82 0  23 82 0  24 82 0  25 82 0  26 82 0  27 82 0  28 82 0  29 82 0  30 82 0  31 82 0  32 82 0  33 82 0  34 82 0  35 82 0  36 82 0  37 82 0  38 82 0  39 82 0  40 82 0  41 82 0  42 82 0  43 82 0  44 82 0  45 82 0  46 82 0  47 82 0  48 82 0  51 82 0  50 82 0  52 82 0  53 82 0  54 82 0  55 82 0  56 82 0  57 82 0  58 82 0  59 82 0  60 82 0  61 82 0  62 82 0  63 82 0  1 83 0  0 83 0  2 83 0  3 83 0  4 83 0  5 83 0  6 83 0  7 83 0  8 83 0  9 83 0  10 83 0  11 83 0  12 83 0  13 83 0  14 83 0  15 83 0  16 83 0  17 83 0  18 83 0  19 83 0  20 83 0  21 83 0  22 83 0  23 83 0  24 83 0  25 83 0  26 83 0  27 83 0  28 83 0  29 83 0  30 83 0  31 83 0  32 83 0  33 83 0  34 83 0  35 83 0  36 83 0  37 83 0  38 83 0  39 83 0  40 83 0  41 83 0  42 83 0  43 83 0  44 83 0  45 83 0  46 83 0  47 83 0  48 83 0  49 83 0  51 83 0  50 83 0  52 83 0  53 83 0  54 83 0  55 83 0  56 83 0  57 83 0  58 83 0  59 83 0  60 83 0  61 83 0  62 83 0  63 83 0  64 82 0  64 83 0  65 82 0  65 83 0  66 82 0  66 83 0  67 83 0  101 82 0  102 82 0  102 83 0  101 83 0  103 82 0  103 83 0  104 82 0  104 83 0  105 82 0  105 83 0  106 82 0  106 83 0  107 82 0  107 83 0  108 82 0  108 83 0  109 82 0  109 83 0  110 82 0  110 83 0  111 82 0  111 83 0  112 82 0  112 83 0  113 82 0  113 83 0  114 82 0  114 83 0  115 82 0  115 83 0  116 82 0  116 83 0  117 83 0  1 84 0  0 84 0  2 84 0  3 84 0  4 84 0  5 84 0  6 84 0  7 84 0  8 84 0  9 84 0  10 84 0  11 84 0  12 84 0  13 84 0  14 84 0  15 84 0  16 84 0  17 84 0  18 84 0  19 84 0  20 84 0  21 84 0  22 84 0  23 84 0  24 84 0  25 84 0  26 84 0  27 84 0  28 84 0  29 84 0  30 84 0  31 84 0  32 84 0  33 84 0  34 84 0  35 84 0  36 84 0  37 84 0  38 84 0  39 84 0  40 84 0  41 84 0  42 84 0  43 84 0  44 84 0  45 84 0  46 84 0  47 84 0  48 84 0  49 84 0  50 84 0  51 84 0  52 84 0  53 84 0  54 84 0  55 84 0  56 84 0  57 84 0  58 84 0  59 84 0  60 84 0  61 84 0  62 84 0  63 84 0  64 84 0  65 84 0  66 84 0  67 84 0  68 83 0  68 84 0  69 84 0  94 83 0  95 83 0  95 84 0  94 84 0  96 83 0  96 84 0  97 83 0  97 84 0  98 83 0  98 84 0  99 83 0  99 84 0  100 83 0  100 84 0  101 84 0  102 84 0  103 84 0  104 84 0  105 84 0  106 84 0  107 84 0  108 84 0  109 84 0  110 84 0  111 84 0  112 84 0  113 84 0  114 84 0  115 84 0  116 84 0  117 84 0  118 84 0  1 85 0  0 85 0  2 85 0  3 85 0  4 85 0  5 85 0  6 85 0  7 85 0  8 85 0  9 85 0  10 85 0  11 85 0  12 85 0  13 85 0  14 85 0  15 85 0  16 85 0  17 85 0  18 85 0  19 85 0  20 85 0  21 85 0  22 85 0  23 85 0  24 85 0  25 85 0  26 85 0  27 85 0  28 85 0  29 85 0  30 85 0  31 85 0  32 85 0  33 85 0  34 85 0  35 85 0  36 85 0  37 85 0  38 85 0  39 85 0  40 85 0  41 85 0  42 85 0  43 85 0  44 85 0  45 85 0  46 85 0  47 85 0  48 85 0  49 85 0  50 85 0  51 85 0  52 85 0  53 85 0  54 85 0  55 85 0  56 85 0  57 85 0  58 85 0  59 85 0  60 85 0  61 85 0  62 85 0  63 85 0  64 85 0  65 85 0  66 85 0  67 85 0  68 85 0  69 85 0  70 84 0  70 85 0  71 84 0  71 85 0  72 84 0  72 85 0  73 85 0  80 84 0  81 84 0  81 85 0  80 85 0  82 84 0  82 85 0  83 84 0  83 85 0  84 84 0  84 85 0  85 85 0  92 84 0  93 84 0  93 85 0  92 85 0  94 85 0  95 85 0  96 85 0  97 85 0  98 85 0  99 85 0  100 85 0  101 85 0  102 85 0  103 85 0  104 85 0  105 85 0  106 85 0  107 85 0  108 85 0  109 85 0  110 85 0  111 85 0  112 85 0  113 85 0  114 85 0  115 85 0  116 85 0  117 85 0  118 85 0  1 86 0  0 86 0  2 86 0  3 86 0  4 86 0  5 86 0  6 86 0  7 86 0  8 86 0  9 86 0  10 86 0  11 86 0  12 86 0  13 86 0  14 86 0  15 86 0  16 86 0  17 86 0  18 86 0  19 86 0  20 86 0  21 86 0  22 86 0  23 86 0  24 86 0  25 86 0  26 86 0  27 86 0  28 86 0  29 86 0  30 86 0  31 86 0  32 86 0  33 86 0  34 86 0  35 86 0  36 86 0  37 86 0  38 86
[...]
<PointData  Vectors="f_85"> 
<DataArray  type="Float64"  Name="f_85"  NumberOfComponents="3" format="ascii">0.0000000000000000e+00 0.0000000000000000e+00 0.0000000000000000e+00  2.7381928981364830e+01 4.0194792767092714e+01 0.0000000000000000e+00  2.7728192448431219e+01 4.0272352455815842e+01 0.0000000000000000e+00  0.0000000000000000e+00 0.0000000000000000e+00 0.0000000000000000e+00  5.5451862233949214e+01 7.9696294270636855e+01 0.0000000000000000e+00  2.8068978828408348e+01 4.0335522905053971e+01 0.0000000000000000e+00  0.0000000000000000e+00 0.0000000000000000e+00 0.0000000000000000e+00  5.6133372562150669e+01 7.9827488914877904e+01 0.0000000000000000e+00  2.8404350553048971e+01 4.0384548715706828e+01 0.0000000000000000e+00  0.0000000000000000e+00 0.0000000000000000e+00 0.0000000000000000e+00  5.6804054362277782e+01 7.9930486846657459e+01 0.0000000000000000e+00  8.5194464904636916e+01 1.1865162958912295e+02 0.0000000000000000e+00  2.8734369271507244e+01 4.0419667693403674e+01 0.0000000000000000e+00  0.0000000000000000e+00 0.0000000000000000e+00 0.0000000000000000e+00  5.7464030929236266e+01 8.0005762749210007e+01 0.0000000000000000e+00  8.6184277583576787e+01 1.1877186985060044e+02 0.0000000000000000e+00  1.1357093609852325e+02 1.5656169413817375e+02 0.0000000000000000e+00  1.1489040229315980e+02 1.5673147696386474e+02 0.0000000000000000e+00  1.4357769878874066e+02 1.9389796939672939e+02 0.0000000000000000e+00  2.9059095853741262e+01 4.0441111258120173e+01 0.0000000000000000e+00  0.0000000000000000e+00 0.0000000000000000e+00 0.0000000000000000e+00  5.8113423999544864e+01 8.0053778555600729e+01 0.0000000000000000e+00  8.7158216957033403e+01 1.1885136204962643e+02 0.0000000000000000e+00  1.1618870770085518e+02 1.5684712641937762e+02 0.0000000000000000e+00  1.4520012988795966e+02 1.9405423527041185e+02 0.0000000000000000e+00  1.7418771808458854e+02 2.3048574560397435e+02 0.0000000000000000e+00  2.9378590393910397e+01 4.0449104824132100e+01 0.0000000000000000e+00  0.0000000000000000e+00 0.0000000000000000e+00 0.0000000000000000e+00  5.8752353758130162e+01 8.0074984206102073e+01 0.0000000000000000e+00  8.8116463293916013e+01 1.1889077941358275e+02 0.0000000000000000e+00  1.1746609266432459e+02 1.5690953743426343e+02 0.0000000000000000e+00  1.4679641622487532e+02 1.9414420570222180e+02 0.0000000000000000e+00  1.7610260925392876e+02 2.3060762688312565e+02 0.0000000000000000e+00  2.0537984818268512e+02 2.6631253373971498e+02 0.0000000000000000e+00  2.9692912213767659e+01 4.0443868152889785e+01 0.0000000000000000e+00  0.0000000000000000e+00 0.0000000000000000e+00 0.0000000000000000e+00  5.9380938845111011e+01 8.0069818351676346e+01 0.0000000000000000e+00  8.9059194545935028e+01 1.1889077828492269e+02 0.0000000000000000e+00  1.1872279443670854e+02 1.5691958252245519e+02 0.0000000000000000e+00  1.4836685434050932e+02 1.9416896754166993e+02 0.0000000000000000e+00  1.7798649101678492e+02 2.3065156680717536e+02 0.0000000000000000e+00  2.0757682239473434e+02 2.6637990592347916e+02 0.0000000000000000e+00  2.3462331082470823e+02 3.0127154409822157e+02 0.0000000000000000e+00  2.3713296780621528e+02 3.0136639787972200e+02 0.0000000000000000e+00  2.6665004821808185e+02 3.3562333840460707e+02 0.0000000000000000e+00  3.0002119866046716e+01 4.0425615681133088e+01 0.0000000000000000e+00  0.0000000000000000e+00 0.0000000000000000e+00 0.0000000000000000e+00  5.9999296362572842e+01 8.0038709008173214e+01 0.0000000000000000e+00  8.9986586357763727e+01 1.1885199909735888e+02 0.0000000000000000e+00  1.1995904719512191e+02 1.5687811307434717e+02 0.0000000000000000e+00  1.4991173693088948e+02 1.9412958138020969e+02 0.0000000000000000e+00  1.7983971457118619e+02 2.3061883312580918e+02 0.0000000000000000e+00  2.0973804030876965e+02 2.6635819151268652e+02 0.0000000000000000e+00  2.3960177575932113e+02 3.0135986933796272e+02 0.0000000000000000e+00  2.6942598419716342e+02 3.3563596459999633e+02 0.0000000000000000e+00  2.9920573079031436e+02 3.6919845622064463e+02 0.0000000000000000e+00  3.0306271137843840e+01 4.0394556826333556e+01 0.0000000000000000e+00  0.0000000000000000e+00 0.0000000000000000e+00 0.0000000000000000e+00  6.0607541881331599e+01 7.9982074165388781e+01 0.0000000000000000e+00  9.0898812077184260e+01 1.1877506728485658e+02 0.0000000000000000e+00  1.2117508205418267e+02 1.5678596056022909e+02 0.0000000000000000e+00  1.5143135286396142e+02 1.9402708304187681e+02 0.0000000000000000e+00  1.8166262652151980e+02 2.3051066406602925e+02 0.0000000000000000e+00  2.1186390624535454e+02 2.6624882892635907e+02 0.0000000000000000e+00  2.4203019669712054e+02 3.0125359462231063e+02 0.0000000000000000e+00  2.7215650422072372e+02 3.3553686569963492e+02 0.0000000000000000e+00  3.0223783708075206e+02 3.6911043019779629e+02 0.0000000000000000e+00  3.2893608283478062e+02 4.0205919989897973e+02 0.0000000000000000e+00  3.3226920570014715e+02 4.0198595571801872e+02 0.0000000000000000e+00  3.5861210998799561e+02 4.3422992411019976e+02 0.0000000000000000e+00  3.6224562289702396e+02 4.3417498562475487e+02 0.0000000000000000e+00  3.8822888450130665e+02 4.6572222626229905e+02 0.0000000000000000e+00  3.9216210412053965e+02 4.6568893539229731e+02 0.0000000000000000e+00  4.2201366768571688e+02 4.9653908910712744e+02 0.0000000000000000e+00  3.0605423053994571e+01 4.0350896271344212e+01 0.0000000000000000e+00  0.0000000000000000e+00 0.0000000000000000e+00 0.0000000000000000e+00  6.1205789447687103e+01 7.9900322354723642e+01 0.0000000000000000e+00  9.1796042765218260e+01 1.1866059412898159e+02 0.0000000000000000e+00  1.2237112707951971e+02 1.5664393765236773e+02 0.0000000000000000e+00  1.5292598719647481e+02 1.9386248497357090e+02 0.0000000000000000e+00  1.8345556889879592e+02 2.3032826998260387e+02 0.0000000000000000e+00  2.1395481918952575e+02 2.6605322431694179e+02 0.0000000000000000e+00  2.4441868653506705e+02 3.0104917333781748e+02 0.0000000000000000e+00  2.7484212110764662e+02 3.3532783219096842e+02 0.0000000000000000e+00  3.0522007502711853e+02 3.6890080196541896e+02 0.0000000000000000e+00  3.3554750260201104e+02 4.0177956596307587e+02 0.0000000000000000e+00  3.6581936056972285e+02 4.3397548609103546e+02 0.0000000000000000e+00  3.9603060833577246e+02 4.6549979938754018e+02 0.0000000000000000e+00  4.2617620821200376e+02 4.9636361469151768e+02 0.0000000000000000e+00  4.5625112565365259e+02 5.2657790946457374e+02 0.0000000000000000e+00  3.0899631880444815e+01 4.0294834229954979e+01 0.0000000000000000e+00  0.0000000000000000e+00 0.0000000000000000e+00 0.0000000000000000e+00  6.1794151590165704e+01 7.9793853178815354e+01 0.0000000000000000e+00  9.2678447206241017e+01 1.1850917754961374e+02 0.0000000000000000e+00  1.2354740730125995e+02 1.5645283927232458e+02 0.0000000000000000e+00  1.5439592119084318e+02 1.9363677754307048e+02 0.0000000000000000e+00  1.8521887918088225e+02 2.3007283489950896e+02 0.0000000000000000e+00  2.1601117281440301e+02 2.6577275334662232e+02 0.0000000000000000e+00  2.4676769511795968e+02 3.0074817054668443e+02 0.0000000000000000e+00  2.7748334084746477e+02 3.3501061608663792e+02 0.0000000000000000e+00  3.0815300673336003e+02 3.6857150783547047e+02 0.0000000000000000e+00  3.3877159172503445e+02 4.0144214840346575e+02 0.0000000000000000e+00  3.6933399723439345e+02 4.3363372171440619e+02 0.0000000000000000e+00  3.9983512737848491e+02 4.6515728970094563e+02 0.0000000000000000e+00  4.3026988922108438e+02 4.9602378913246451e+02 0.0000000000000000e+00  4.6063319301314641e+02 5.2624402858375913e+02 0.0000000000000000e+00  4.9091995243202268e+02 5.5582868555194466e+02 0.0000000000000000e+00  3.1188953127616454e+01 4.0226566694888284e+01 0.0000000000000000e+00  0.0000000000000000e+00 0.0000000000000000e+00 0.0000000000000000e+00  6.2372739326251484e+01 7.9663057806197060e+01 0.0000000000000000e+00  9.3546191918079401e+01 1.1832140284356134e+02 0.0000000000000000e+00  1.2470414472749259e+02 1.5621344356947441e+02 0.0000000000000000e+00  1.5584143233197688e+02 1.9335093025210548e+02 0.0000000000000000e+00  1.8695289031270582e+02 2.2974551795096741e+02 0.0000000000000000e+00  2.1803335550476180e+02 2.6540876284858177e+02 0.0000000000000000e+00  2.4907766624688827e+02 3.0035211864088814e+02 0.0000000000000000e+00  2.8008066263068002e+02 3.3458693299865649e+02 0.0000000000000000e+00  3.1103718674911789e+02 3.6812444411158714e+02 0.0000000000000000e+00  3.4194208294435225e+02 4.0097577732613837e+02 0.0000000000000000e+00  3.7279019805464139e+02 4.3315194188740526e+02 0.0000000000000000e+00  4.0357638166035036e+02 4.6466382779459980e+02 0.0000000000000000e+00  4.3429548632891334e+02 4.9552220277886369e+02 0.0000000000000000e+00  4.6494236785866616e+02 5.2573770941128180e+02 0.0000000000000000e+00  4.9551188552144924e+02 5.5532086234807718e+02 0.0000000000000000e+00  5.2599890230389087e+02 5.8428204571906167e+02 0.0000000000000000e+00  3.1473441553767021e+01 4.0146285669625797e+01 0.0000000000000000e+00  0.0000000000000000e+00 0.0000000000000000e+00 0.0000000000000000e+00  6.2941662169106024e+01 7.9508319433747985e+01 0.0000000000000000e+00  9.4399441162091691e+01 1.1809784337518491e+02 0.0000000000000000e+00  1.2584155835771105e+02 1.5592651283613111e+02 0.0000000000000000e+00  1.5726279434408679e+02 1.9300589287113451e+02 0.0000000000000000e+00  1.8865793072642128e+02 2.2934745472989826e+02 0.0000000000000000e+00  2.2002175038056782e+02 2.6496257238207392e+02 0.0000000000000000e+00  2.5134903770613596e+02 2.9986251909585474e+02 0.0000000000000000e+00  2.8263457887903667e+02 3.3405846408173750e+02 0.0000000000000000e+00  3.1387316210337497e+02 3.6756146921230788e+02 0.0000000000000000e+00  3.4505957786259410e+02 4.0038248582832011e+02 0.0000000000000000e+00  3.7618861916977897e+02 4.3253235164070134e+02 0.0000000000000000e+00  4.0725508181702298e+02 4.6402178773740928e+02 0.0000000000000000e+00  4.3825376462376420e+02 4.9486139570333347e+02 0.0000000000000000e+00  4.6917946968399514e+02 5.2506165486065163e+02 0.0000000000000000e+00  5.0002700261225050e+02 5.5463291963624579e+02 0.0000000000000000e+00  5.3079117278827903e+02 5.8358541706196229e+02 0.0000000000000000e+00  5.6146679360029873e+02 6.1192924441265575e+02 0.0000000000000000e+00  3.1753151168343084e+01 4.0054179385327387e+01 0.0000000000000000e+00  0.0000000000000000e+00 0.0000000000000000e+00 0.0000000000000000e+00  6.3501028134275529e+01 7.9330013719444608e+01 0.0000000000000000e+00  9.5238356953229399e+01 1.1783906122275970e+02 0.0000000000000000e+00  1.2695986419622976e+02 1.5559279436419104e+02 0.0000000000000000e+00  1.5866027720745899e+02 1.9260259650186364e+02 0.0000000000000000e+00  1.9033432436154359e+02 2.2887975855087763e+02 0.0000000000000000e+00  2.2197673532046991e+02 2.6443547568942137e+02 0.0000000000000000e+00  2.5358224129003537e+02 2.9928084411417984e+02 0.0000000000000000e+00  2.8514557527574323e+02 3.3342685785559172e+02 0.0000000000000000e+00  3.1666147233804685e+02 3.6688440566304718e+02 0.0000000000000000e+00  3.4812466984684926e+02 3.9966426796959325e+02 0.0000000000000000e+00  3.7952990773516683e+02 4.3177711394513142e+02 0.0000000000000000e+00  4.1087192875185968e+02 4.6323349864646326e+02 0.0000000000000000e+00  4.4214547871333650e+02 4.9404386027186990e+02 0.0000000000000000e+00  4.7334530675413924e+02 5.2421851752720522e+02 0.0000000000000000e+00  5.0446616557631171e+02 5.5376766710975289e+02 0.0000000000000000e+00  5.3550281169745699e+02 5.8270138131534702e+02 0.0000000000000000e+00  5.6645000569738943e+02 6.1102960577349813e+02 0.0000000000000000e+00  3.2028135235327291e+01 3.9950432503988424e+01 0.0000000000000000e+00  0.0000000000000000e+00 0.0000000000000000e+00 0.0000000000000000e+00  6.4050943746385215e+01 7.9128509187692643e+01 0.0000000000000000e+00  9.6063099070079915e+01 1.1754560778396755e+02 0.0000000000000000e+00  1.2805927526557628e+02 1.5521302124775903e+02 0.0000000000000000e+00  1.6003414717519672e+02 1.9214195457300073e+02 0.0000000000000000e+00  1.9198239068504324e+02 2.2834352163407644e+02 0.0000000000000000e+00  2.2389868298525047e+02 2.6382874206230349e+02 0.0000000000000000e+00  2.5577770282977681e+02 2.9860853816760101e+02 0.0000000000000000e+00  2.8761413079564164e+02 3.3269373191515149e+02 0.0000000000000000e+00  3.1940264954151502e+02 3.6609504196644480e+02 0.0000000000000000e+00  3.5113794406556798e+02 3.9882308079362338e+02 0.0000000000000000e+00  3.8281470196248898e+02 4.3088835187551717e+02 0.0000000000000000e+00  4.1442761367957365e+02 4.6230124698319179e+02 0.0000000000000000e+00  4.4597137277179417e+02 4.9307204356222701e+02 0.0000000000000000e+00  4.7744067615575392e+02 5.2321090221829593e+02 0.0000000000000000e+00  5.0883022436243294e+02 5.5272786431196232e+02 0.0000000000000000e+00  5.4013472178862969e+02 5.8163284966792446e+02 0.0000000000000000e+00  5.7134887694700376e+02 6.0993565440324096e+02 0.0000000000000000e+00  6.0246740271462363e+02 6.3764594887838405e+02 0.0000000000000000e+00  3.2298446276578339e+01 3.9835226308878255e+01 0.0000000000000000e+00  0.0000000000000000e+00 0.0000000000000000e+00 0.0000000000000000e+00  6.4591514045819792e+01 7.8904167609314612e+01 0.0000000000000000e+00  9.6873825064887939e+01 1.1721802434360337e+02 0.0000000000000000e+00  1.2914000161985544e+02 1.5478791313582138e+02 0.0000000000000000e+00  1.6138466678992935e+02 1.9162486377424833e+02 0.0000000000000000e+00  1.9360244471140112e+02 2.2773981621606850e+02 0.0000000000000000e+00  2.2578796084122951e+02 2.6314361762405974e+02 0.0000000000000000e+00  2.5793584222016426e+02 2.9784701944471396e+02 0.0000000000000000e+00  2.9004071773531871e+02 3.3186067453691282e+02 0.0000000000000000e+00  3.2209721838209919e+02 3.6519513435990189e+02 0.0000000000000000e+00  3.5409997752539761e+02 3.9786084622888330e+02 0.0000000000000000e+00  3.8604363115995687e+02 4.2986815064606645e+02 0.0000000000000000e+00  4.1792281816981296e+02 4.6122727871450485e+02 0.0000000000000000e+00  4.4973218058672381e+02 4.9194834964149527e+02 0.0000000000000000e+00  4.8146636384748956e+02 5.2204136833773373e+02 0.0000000000000000e+00  5.1312001705006992e+02 5.5151622311782114e+02 0.0000000000000000e+00  5.4468779320840633e+02 5.8038268350709200e+02 0.0000000000000000e+00  5.7616434950585460e+02 6.0865039815910143e+02 0.0000000000000000e+00  6.0754434754712838e+02 6.3632889288747936e+02 0.0000000000000000e+00  6.3882245360866523e+02 6.6342756881521177e+02 0.0000000000000000e+00  3.2564136075163745e+01 3.9708738883210117e+01 0.0000000000000000e+00  0.0000000000000000e+00 0.0000000000000000e+00 0.0000000000000000e+00  6.5122842595389344e+01 7.8657344358084231e+01 0.0000000000000000e+00  9.7670690273555735e+01 1.1685684260631018e+02 0.0000000000000000e+00  1.3020225035808491e+02 1.5431817693867498e+02 0.0000000000000000e+00  1.6271209490048520e+02 1.9105220493310293e+02 0.0000000000000000e+00  1.9519479702262149e+02 2.2706969559288973e+02 0.0000000000000000e+00  2.2764493118361986e+02 2.6238132653415300e+02 0.0000000000000000e+00  2.6005707344631634e+02 2.9699768121128261e+02 0.0000000000000000e+00  2.9242580174315725e+02 3.3092924618888395e+02 0.0000000000000000e+00  3.2474569614146071e+02 3.6418640846836666e+02 0.0000000000000000e+00  3.5701133910794539e+02 3.9677945287694155e+02 0.0000000000000000e+00  3.8921731577243725e+02 4.2871855952636054e+02 0.0000000000000000e+00  4.2135821419065854e+02 4.6001380134826593e+02 0.0000000000000000e+00  4.5342862560600997e+02 4.9067514171251577e+02 0.0000000000000000e+00  4.8542314471025054e+02 5.2071243213432217e+02 0.0000000000000000e+00  5.1733636990298328e+02 5.5013541007549668e+02 0.0000000000000000e+00  5.4916290354985290e+02 5.7895369684452089e+02 0.0000000000000000e+00  5.8089735223936214e+02 6.0717679559959413e+02 0.0000000000000000e+00  6.1253432703821250e+02 6.3481408945822068e+02 0.0000000000000000e+00  6.4406844374507159e+02 6.6187483971631571e+02 0.0000000000000000e+00  6.6999333888731439e+02 6.8995570064378899e+02 0.0000000000000000e+00  6.7549432314267915e+02 6.8836818417923405e+02 0.0000000000000000e+00  7.0680659124818931e+02 7.1430313560655077e+02 0.0000000000000000e+00  3.2825255678684776e+01 3.9571145277909579e+01 0.0000000000000000e+00  0.0000000000000000e+00 0.0000000000000000e+00 0.0000000000000000e+00  6.5645031486979761e+01 7.8388388745533561e+01 0.0000000000000000e+00  9.8453847825620031e+01 1.1646258519690976e+02 0.0000000000000000e+00  1.3124622563749992e+02 1.5380450749149702e+02 0.0000000000000000e+00  1.6401668667852607e+02 1.9042484383863018e+02 0.0000000000000000e+00  1.9675975378819865e+02 2.2633419510026621e+02 0.0000000000000000e+00  2.2946995115982966e+02 2.6154307212041175e+02 0.0000000000000000e+00  2.6214180461030821e+02 2.9606189308941094e+02 0.0000000000000000e+00  2.9476984184932064e+02 3.2990098095100529e+02 0.0000000000000000e+00  3.2734859274793632e+02 3.6307056085977092e+02 0.0000000000000000e+00  3.5987258960646511e+02 3.9558075769618733e+02 0.0000000000000000e+00  3.9233636742149776e+02 4.2744159364619969e+02 0.0000000000000000e+00  4.2473446415203551e+02 4.5866298585171450e+02 0.0000000000000000e+00  4.5706142098461828e+02 4.8925474413801106e+02 0.0000000000000000e+00  4.8931178259735958e+02 5.1922656882357478e+02 0.0000000000000000e+00  5.2148009742279294e+02 5.4858804861735450e+02 0.0000000000000000e+00  5.5356091790944083e+02 5.7734865860793229e+02 0.0000000000000000e+00  5.8554880078201188e+02 6.0551775834856517e+02 0.0000000000000000e+00  6.1743830730013030e+02 6.3310459004152494e+02 0.0000000000000000e+00  6.4922400351550675e+02 6.6011827682462786e+02 0.0000000000000000e+00  6.8090046052745561e+02 6.8656782116231295e+02 0.0000000000000000e+00  7.1246225473666459e+02 7.1246210334310115e+02 0.0000000000000000e+00  7.4390396809711854e+02 7.3780988008475367e+02 0.0000000000000000e+00  3.3081855402593106e+01 3.9422617669273777e+01 0.0000000000000000e+00  0.0000000000000000e+00 0.0000000000000000e+00 0.0000000000000000e+00  6.6158181348186488e+01 7.8097644335609871e+01 0.0000000000000000e+00  9.9223448654203807e+01 1.1603576613067749e+02 0.0000000000000000e+00  1.3227212868682537e+02 1.5324758817815231e+02 0.0000000000000000e+00  1.6529869363514166e+02 1.8974363201603393e+02 0.0000000000000000e+00  1.9829761678503644e+02 2.2553433303551213e+02 0.0000000000000000e+00  2.3126337279270967e+02 2.6063003794419592e+02 0.0000000000000000e+00  2.6419043795775036e+02 2.9504100226132351e+02 0.0000000000000000e+00  2.9707329049566818e+02 3.2877738785233458e+02 0.0000000000000000e+00  3.2990641080979447e+02 3.6184926050990350e+02 0.0000000000000000e+00  3.6268428176246016e+02 3.9426658758821600e+02 0.0000000000000000e+00  3.9540138894536273e+02 4.2603923569691545e+02 0.0000000000000000e+00  4.2805222094902848e+02 4.5717696846076024e+02 0.0000000000000000e+00  4.6063126963127951e+02 4.8768944435061849e+02 0.0000000000000000e+00  4.9313303038461657e+02 5.1758621459099049e+02 0.0000000000000000e+00  5.2555200240242038e+02 5.4687672114879331e+02 0.0000000000000000e+00  5.5788268894388659e+02 5.7557029480766778e+02 0.0000000000000000e+00  5.9011959759759657e+02 6.0367615333158858e+02 0.0000000000000000e+00  6.2225724054363252e+02 6.3120339972106535e+02 0.0000000000000000e+00  6.5429013481414654e+02 6.5816102056473744e+02 0.0000000000000000e+00  6.8621280255228601e+02 6.8455788448866804e+02 0.0000000000000000e+00  7.1801977126938777e+02 7.1040274070516614e+02 0.0000000000000000e+00  7.4970557410033814e+02 7.3570421766248012e+02 0.0000000000000000e+00  7.7522018836608731e+02 7.6261978324794734e+02 0.0000000000000000e+00  7.8126475005701286e+02 7.6047082179625261e+02 0.0000000000000000e+00  8.1269184427969549e+02 7.8471093638317336e+02 0.0000000000000000e+00  3.3333984833498640e+01 3.9263325507246371e+01 0.0000000000000000e+00  0.0000000000000000e+00 0.0000000000000000e+00 0.0000000000000000e+00  6.6662391348930981e+01 7.7785449240625397e+01 0.0000000000000000e+00  9.9979641505942453e+01 1.1557689125570867e+02 0.0000000000000000e+00  1.3328015781951285e+02 1.5264809151807157e+02 0.0000000000000000e+00  1.6655836363