<?xml version="1.0"?>
<VTKFile type="UnstructuredGrid"  version="0.1"  >
<UnstructuredGrid>
<Piece  NumberOfPoints="7579" NumberOfCells="14787">
<Points>
<DataArray  type="Float64"  NumberOfComponents="3"  format="ascii">114 59 0  115 59 0  115 60 0  114 60 0  116 59 0  116 60 0  117 59 0  117 60 0  118 60 0  115 61 0  114 61 0  116 61 0  117 61 0  118 61 0  119 60 0  119 61 0  120 60 0  120 61 0  121 60 0  121 61 0  122 60 0  122 61 0  123 61 0  111 61 0  112 61 0  112 62 0  111 62 0  113 61 0  113 62 0  114 62 0  115 62 0  116 62 0  117 62 0  118 62 0  119 62 0  120 62 0  121 62 0  122 62 0  123 62 0  124 62 0  110 62 0  111 63 0  110 63 0  112 63 0  113 63 0  114 63 0  115 63 0  116 63 0  117 63 0  118 63 0  119 63 0  120 63 0  121 63 0  122 63 0  123 63 0  124 63 0  125 62 0  125 63 0  126 62 0  126 63 0  127 63 0  111 64 0  112 64 0  113 64 0  114 64 0  115 64 0  116 64 0  117 64 0  118 64 0  119 64 0  120 64 0  121 64 0  122 64 0  123 64 0  124 64 0  125 64 0  126 64 0  127 64 0  128 63 0  128 64 0  129 64 0  112 65 0  111 65 0  113 65 0  114 65 0  115 65 0  116 65 0  117 65 0  118 65 0  119 65 0  120 65 0  121 65 0  122 65 0  123 65 0  124 65 0  125 65 0  126 65 0  127 65 0  128 65 0  129 65 0  130 65 0  112 66 0  111 66 0  113 66 0  114 66 0  115 66 0  116 66 0  117 66 0  118 66 0  119 66 0  120 66 0  121 66 0  122 66 0  123 66 0  124 66 0  125 66 0  126 66 0  127 66 0  128 66 0  129 66 0  130 66 0  131 65 0  131 66 0  132 65 0  132 66 0  133 66 0  112 67 0  111 67 0  113 67 0  114 67 0  115 67 0  116 67 0  117 67 0  118 67 0  119 67 0  120 67 0  121 67 0  122 67 0  123 67 0  124 67 0  125 67 0  126 67 0  127 67 0  128 67 0  129 67 0  130 67 0  131 67 0  132 67 0  133 67 0  134 66 0  134 67 0  135 66 0  135 67 0  136 66 0  136 67 0  137 66 0  137 67 0  138 66 0  138 67 0  139 66 0  139 67 0  140 67 0  112 68 0  111 68 0  113 68 0  114 68 0  115 68 0  116 68 0  117 68 0  118 68 0  119 68 0  120 68 0  121 68 0  122 68 0  123 68 0  124 68 0  125 68 0  126 68 0  127 68 0  128 68 0  129 68 0  130 68 0  131 68 0  132 68 0  133 68 0  134 68 0  135 68 0  136 68 0  137 68 0  138 68 0  139 68 0  140 68 0  141 67 0  141 68 0  142 67 0  142 68 0  143 68 0  112 69 0  113 69 0  114 69 0  115 69 0  116 69 0  117 69 0  118 69 0  119 69 0  120 69 0  121 69 0  122 69 0  123 69 0  124 69 0  125 69 0  126 69 0  127 69 0  128 69 0  129 69 0  130 69 0  131 69 0  132 69 0  133 69 0  134 69 0  135 69 0  136 69 0  137 69 0  138 69 0  139 69 0  140 69 0  141 69 0  142 69 0  143 69 0  144 69 0  113 70 0  112 70 0  114 70 0  115 70 0  116 70 0  117 70 0  118 70 0  119 70 0  120 70 0  121 70 0  122 70 0  123 70 0  124 70 0  125 70 0  126 70 0  127 70 0  128 70 0  129 70 0  130 70 0  131 70 0  132 70 0  133 70 0  134 70 0  135 70 0  136 70 0  137 70 0  138 70 0  139 70 0  140 70 0  141 70 0  142 70 0  143 70 0  144 70 0  145 70 0  113 71 0  112 71 0  114 71 0  115 71 0  116 71 0  117 71 0  118 71 0  119 71 0  120 71 0  121 71 0  122 71 0  123 71 0  124 71 0  125 71 0  126 71 0  127 71 0  128 71 0  129 71 0  130 71 0  131 71 0  132 71 0  133 71 0  134 71 0  135 71 0  136 71 0  137 71 0  138 71 0  139 71 0  140 71 0  141 71 0  142 71 0  143 71 0  144 71 0  145 71 0  146 71 0  113 72 0  114 72 0  115 72 0  116 72 0  117 72 0  118 72 0  119 72 0  120 72 0  121 72 0  122 72 0  123 72 0  124 72 0  125 72 0  126 72 0  127 72 0  128 72 0  129 72 0  130 72 0  131 72 0  132 72 0  133 72 0  134 72 0  135 72 0  136 72 0  137 72 0  138 72 0  139 72 0  140 72 0  141 72 0  142 72 0  143 72 0  144 72 0  145 72 0  146 72 0  147 71 0  147 72 0  148 72 0  114 73 0  115 73 0  116 73 0  117 73 0  118 73 0  119 73 0  120 73 0  121 73 0  122 73 0  123 73 0  124 73 0  125 73 0  126 73 0  127 73 0  128 73 0  129 73 0  130 73 0  131 73 0  132 73 0  133 73 0  134 73 0  135 73 0  136 73 0  137 73 0  138 73 0  139 73 0  140 73 0  141 73 0  142 73 0  143 73 0  144 73 0  145 73 0  146 73 0  147 73 0  148 73 0  149 72 0  149 73 0  150 72 0  150 73 0  151 72 0  151 73 0  152 72 0  152 73 0  153 73 0  115 74 0  114 74 0  116 74 0  117 74 0  118 74 0  119 74 0  120 74 0  121 74 0  122 74 0  123 74 0  124 74 0  125 74 0  126 74 0  127 74 0  128 74 0  129 74 0  130 74 0  131 74 0  132 74 0  133 74 0  134 74 0  135 74 0  136 74 0  137 74 0  138 74 0  139 74 0  140 74 0  141 74 0  142 74 0  143 74 0  144 74 0  145 74 0  146 74 0  147 74 0  148 74 0  149 74 0  150 74 0  151 74 0  152 74 0  153 74 0  154 73 0  154 74 0  155 74 0  115 75 0  116 75 0  117 75 0  118 75 0  119 75 0  120 75 0  121 75 0  122 75 0  123 75 0  124 75 0  125 75 0  126 75 0  127 75 0  128 75 0  129 75 0  130 75 0  131 75 0  132 75 0  133 75 0  134 75 0  135 75 0  136 75 0  137 75 0  138 75 0  139 75 0  140 75 0  141 75 0  142 75 0  143 75 0  144 75 0  145 75 0  146 75 0  147 75 0  148 75 0  149 75 0  150 75 0  151 75 0  152 75 0  153 75 0  154 75 0  155 75 0  156 74 0  156 75 0  157 75 0  116 76 0  115 76 0  117 76 0  118 76 0  119 76 0  120 76 0  121 76 0  122 76 0  123 76 0  124 76 0  125 76 0  126 76 0  127 76 0  128 76 0  129 76 0  130 76 0  131 76 0  132 76 0  133 76 0  134 76 0  135 76 0  136 76 0  137 76 0  138 76 0  139 76 0  140 76 0  141 76 0  142 76 0  143 76 0  144 76 0  145 76 0  146 76 0  147 76 0  148 76 0  149 76 0  150 76 0  151 76 0  152 76 0  153 76 0  154 76 0  155 76 0  156 76 0  157 76 0  158 76 0  116 77 0  117 77 0  118 77 0  119 77 0  120 77 0  121 77 0  122 77 0  123 77 0  124 77 0  125 77 0  126 77 0  127 77 0  128 77 0  129 77 0  130 77 0  131 77 0  132 77 0  133 77 0  134 77 0  135 77 0  136 77 0  137 77 0  138 77 0  139 77 0  140 77 0  141 77 0  142 77 0  143 77 0  144 77 0  145 77 0  146 77 0  147 77 0  148 77 0  149 77 0  150 77 0  151 77 0  152 77 0  153 77 0  154 77 0  155 77 0  156 77 0  157 77 0  158 77 0  159 77 0  117 78 0  116 78 0  118 78 0  119 78 0  120 78 0  121 78 0  122 78 0  123 78 0  124 78 0  125 78 0  126 78 0  127 78 0  128 78 0  129 78 0  130 78 0  131 78 0  132 78 0  133 78 0  134 78 0  135 78 0  136 78 0  137 78 0  138 78 0  139 78 0  140 78 0  141 78 0  142 78 0  143 78 0  144 78 0  145 78 0  146 78 0  147 78 0  148 78 0  149 78 0  150 78 0  151 78 0  152 78 0  153 78 0  154 78 0  155 78 0  156 78 0  157 78 0  158 78 0  159 78 0  160 77 0  160 78 0  161 77 0  161 78 0  162 77 0  162 78 0  163 77 0  163 78 0  164 78 0  117 79 0  116 79 0  118 79 0  119 79 0  120 79 0  121 79 0  122 79 0  123 79 0  124 79 0  125 79 0  126 79 0  127 79 0  128 79 0  129 79 0  130 79 0  131 79 0  132 79 0  133 79 0  134 79 0  135 79 0  136 79 0  137 79 0  138 79 0  139 79 0  140 79 0  141 79 0  142 79 0  143 79 0  144 79 0  145 79 0  146 79 0  147 79 0  148 79 0  149 79 0  150 79 0  151 79 0  152 79 0  153 79 0  154 79 0  155 79 0  156 79 0  157 79 0  158 79 0  159 79 0  160 79 0  161 79 0  162 79 0  163 79 0  164 79 0  165 78 0  165 79 0  166 78 0  166 79 0  167 79 0  117 80 0  116 80 0  118 80 0  119 80 0  120 80 0  121 80 0  122 80 0  123 80 0  124 80 0  125 80 0  126 80 0  127 80 0  128 80 0  129 80 0  130 80 0  131 80 0  132 80 0  133 80 0  134 80 0  135 80 0  136 80 0  137 80 0  138 80 0  139 80 0  140 80 0  141 80 0  142 80 0  143 80 0  144 80 0  145 80 0  146 80 0  147 80 0  148 80 0  149 80 0  150 80 0  151 80 0  152 80 0  153 80 0  154 80 0  155 80 0  156 80 0  157 80 0  158 80 0  159 80 0  160 80 0  161 80 0  162 80 0  163 80 0  164 80 0  165 80 0  166 80 0  167 80 0  168 80 0  117 81 0  116 81 0  118 81 0  119 81 0  120 81 0  121 81 0  122 81 0  123 81 0  124 81 0  125 81 0  126 81 0  127 81 0  128 81 0  129 81 0  130 81 0  131 81 0  132 81 0  133 81 0  134 81 0  135 81 0  136 81 0  137 81 0  138 81 0  139 81 0  140 81 0  141 81 0  142 81 0  143 81 0  144 81 0  145 81 0  146 81 0  147 81 0  148 81 0  149 81 0  150 81 0  151 81 0  152 81 0  153 81 0  154 81 0  155 81 0  156 81 0  157 81 0  158 81 0  159 81 0  160 81 0  161 81 0  162 81 0  163 81 0  164 81 0  165 81 0  166 81 0  167 81 0  168 81 0  169 81 0  117 82 0  116 82 0  118 82 0  119 82 0  120 82 0  121 82 0  122 82 0  123 82 0  124 82 0  125 82 0  126 82 0  127 82 0  128 82 0  129 82 0  130 82 0  131 82 0  132 82 0  133 82 0  134 82 0  135 82 0  136 82 0  137 82 0  138 82 0  139 82 0  140 82 0  141 82 0  142 82 0  143 82 0  144 82 0  145 82 0  146 82 0  147 82 0  148 82 0  149 82 0  150 82 0  151 82 0  152 82 0  153 82 0  154 82 0  155 82 0  156 82 0  157 82 0  158 82 0  159 82 0  160 82 0  161 82 0  162 82 0  163 82 0  164 82 0  165 82 0  166 82 0  167 82 0  168 82 0  169 82 0  170 81 0  170 82 0  171 81 0  171 82 0  172 82 0  117 83 0  118 83 0  119 83 0  120 83 0  121 83 0  122 83 0  123 83 0  124 83 0  125 83 0  126 83 0  127 83 0  128 83 0  129 83 0  130 83 0  131 83 0  132 83 0  133 83 0  134 83 0  135 83 0  136 83 0  137 83 0  138 83 0  139 83 0  140 83 0  141 83 0  142 83 0  143 83 0  144 83 0  145 83 0  146 83 0  147 83 0  148 83 0  149 83 0  150 83 0  151 83 0  152 83 0  153 83 0  154 83 0  155 83 0  156 83 0  157 83 0  158 83 0  159 83 0  160 83 0  161 83 0  162 83 0  163 83 0  164 83 0  165 83 0  166 83 0  167 83 0  168 83 0  169 83 0  170 83 0  171 83 0  172 83 0  173 83 0  118 84 0  119 84 0  120 84 0  121 84 0  122 84 0  123 84 0  124 84 0  125 84 0  126 84 0  127 84 0  128 84 0  129 84 0  130 84 0  131 84 0  132 84 0  133 84 0  134 84 0  135 84 0  136 84 0  137 84 0  138 84 0  139 84 0  140 84 0  141 84 0  142 84 0  143 84 0  144 84 0  145 84 0  146 84 0  147 84 0  148 84 0  149 84 0  150 84 0  151 84 0  152 84 0  153 84 0  154 84 0  155 84 0  156 84 0  157 84 0  158 84 0  159 84 0  160 84 0  161 84 0  162 84 0  163 84 0  164 84 0  165 84 0  166 84 0  167 84 0  168 84 0  169 84 0  170 84 0  171 84 0  172 84 0  173 84 0  174 83 0  174 84 0  175 83 0  175 84 0  176 83 0  176 84 0  177 84 0  119 85 0  118 85 0  120 85 0  121 85 0  122 85 0  123 85 0  124 85 0  125 85 0  126 85 0  127 85 0  128 85 0  129 85 0  130 85 0  131 85 0  132 85 0  133 85 0  134 85 0  135 85 0  136 85 0  137 85 0  138 85 0  139 85 0  140 85 0  141 85 0  142 85 0  143 85 0  144 85 0  145 85 0  146 85 0  147 85 0 
[...]
<PointData  Vectors="f_85"> 
<DataArray  type="Float64"  Name="f_85"  NumberOfComponents="3" format="ascii">2.2112140433102404e+03 1.5005609460953681e+03 0.0000000000000000e+00  2.2102311995663804e+03 1.4967100335200714e+03 0.0000000000000000e+00  2.2317348922207875e+03 1.5003029627735702e+03 0.0000000000000000e+00  2.2327612415341323e+03 1.5041761460883552e+03 0.0000000000000000e+00  2.2087276627704186e+03 1.4926158259061931e+03 0.0000000000000000e+00  2.2301821983271175e+03 1.4961851552637320e+03 0.0000000000000000e+00  2.2066992573310790e+03 1.4882765566183298e+03 0.0000000000000000e+00  2.2280989581080426e+03 1.4918209611255584e+03 0.0000000000000000e+00  2.2254809652716035e+03 1.4872085121188422e+03 0.0000000000000000e+00  2.2528521731215997e+03 1.5033151874849882e+03 0.0000000000000000e+00  2.2539219605260646e+03 1.5072089841129127e+03 0.0000000000000000e+00  2.2512504847404507e+03 1.4991755425124711e+03 0.0000000000000000e+00  2.2491126685775303e+03 1.4947882917641946e+03 0.0000000000000000e+00  2.2464344942265152e+03 1.4901515724524675e+03 0.0000000000000000e+00  2.2223240082714997e+03 1.4823458333521842e+03 0.0000000000000000e+00  2.2432117270050358e+03 1.4852634156174140e+03 0.0000000000000000e+00  2.2186238695822453e+03 1.4772308423947979e+03 0.0000000000000000e+00  2.2394401272638443e+03 1.4801217452692374e+03 0.0000000000000000e+00  2.2143763249572012e+03 1.4718613483447666e+03 0.0000000000000000e+00  2.2351154496802674e+03 1.4747243774888393e+03 0.0000000000000000e+00  2.2095771426697888e+03 1.4662350508542017e+03 0.0000000000000000e+00  2.2302334425362910e+03 1.4690690194872907e+03 0.0000000000000000e+00  2.2247898469817092e+03 1.4631532686246790e+03 0.0000000000000000e+00  2.2539821446256537e+03 1.5174312938302344e+03 0.0000000000000000e+00  2.2544827255538962e+03 1.5142655398734323e+03 0.0000000000000000e+00  2.2753328990449513e+03 1.5167574736453003e+03 0.0000000000000000e+00  2.2748594292721900e+03 1.5199387992590707e+03 0.0000000000000000e+00  2.2544640708162383e+03 1.5108585852440881e+03 0.0000000000000000e+00  2.2752817483771132e+03 1.5133338131681066e+03 0.0000000000000000e+00  2.2747017307080923e+03 1.5096663764467519e+03 0.0000000000000000e+00  2.2735885986651770e+03 1.5057536193535307e+03 0.0000000000000000e+00  2.2719381034667840e+03 1.5015938943495021e+03 0.0000000000000000e+00  2.2697459943102731e+03 1.4971854497788136e+03 0.0000000000000000e+00  2.2670080177445093e+03 1.4925264291219517e+03 0.0000000000000000e+00  2.2637199170274171e+03 1.4876148702083001e+03 0.0000000000000000e+00  2.2598774314688280e+03 1.4824487043884294e+03 0.0000000000000000e+00  2.2554762957589519e+03 1.4770257556665958e+03 0.0000000000000000e+00  2.2505122392828821e+03 1.4713437397939731e+03 0.0000000000000000e+00  2.2449809854215955e+03 1.4654002633232069e+03 0.0000000000000000e+00  2.2388782508399745e+03 1.4591928226249408e+03 0.0000000000000000e+00  2.2738655853884266e+03 1.5228791292657434e+03 0.0000000000000000e+00  2.2953613968081777e+03 1.5218734286206393e+03 0.0000000000000000e+00  2.2943895514387682e+03 1.5248269543296481e+03 0.0000000000000000e+00  2.2958076000352421e+03 1.5186778706062264e+03 0.0000000000000000e+00  2.2957238882865372e+03 1.5152389456619214e+03 0.0000000000000000e+00  2.2951059893398201e+03 1.5115552174780935e+03 0.0000000000000000e+00  2.2939496310303111e+03 1.5076251474585158e+03 0.0000000000000000e+00  2.2922505406824648e+03 1.5034470940788283e+03 0.0000000000000000e+00  2.2900044445274320e+03 1.4990193122052419e+03 0.0000000000000000e+00  2.2872070671064484e+03 1.4943399523738622e+03 0.0000000000000000e+00  2.2838541306604288e+03 1.4894070600310406e+03 0.0000000000000000e+00  2.2799413545060979e+03 1.4842185747352194e+03 0.0000000000000000e+00  2.2754644543990503e+03 1.4787723293207762e+03 0.0000000000000000e+00  2.2704191418841729e+03 1.4730660490244347e+03 0.0000000000000000e+00  2.2648011236339316e+03 1.4670973505748705e+03 0.0000000000000000e+00  2.2586061007750986e+03 1.4608637412461940e+03 0.0000000000000000e+00  2.2321997447624576e+03 1.4527188028670325e+03 0.0000000000000000e+00  2.2518297682045518e+03 1.4543626178760692e+03 0.0000000000000000e+00  2.2249411682369896e+03 1.4459754769572617e+03 0.0000000000000000e+00  2.2444678138948661e+03 1.4475912658493044e+03 0.0000000000000000e+00  2.2365159181904787e+03 1.4405468580478166e+03 0.0000000000000000e+00  2.3154933152649633e+03 1.5232420695128410e+03 0.0000000000000000e+00  2.3159121230599389e+03 1.5200336137222723e+03 0.0000000000000000e+00  2.3157958107413374e+03 1.5165808606204869e+03 0.0000000000000000e+00  2.3151400814101444e+03 1.5128823795704120e+03 0.0000000000000000e+00  2.3139406390998629e+03 1.5089366381488387e+03 0.0000000000000000e+00  2.3121931882365593e+03 1.5047420015272810e+03 0.0000000000000000e+00  2.3098934330857010e+03 1.5002967318146916e+03 0.0000000000000000e+00  2.3070370771860416e+03 1.4955989873624426e+03 0.0000000000000000e+00  2.3036198227708851e+03 1.4906468220320094e+03 0.0000000000000000e+00  2.2996373701770840e+03 1.4854381844258601e+03 0.0000000000000000e+00  2.2950854172422005e+03 1.4799709170820818e+03 0.0000000000000000e+00  2.2899596586903108e+03 1.4742427556333450e+03 0.0000000000000000e+00  2.2842557855069749e+03 1.4682513279308739e+03 0.0000000000000000e+00  2.2779694843039938e+03 1.4619941531341233e+03 0.0000000000000000e+00  2.2710964366746116e+03 1.4554686407669749e+03 0.0000000000000000e+00  2.2636323185399133e+03 1.4486720897412972e+03 0.0000000000000000e+00  2.2555727994872468e+03 1.4416016873488206e+03 0.0000000000000000e+00  2.2279697530953281e+03 1.4332264537679798e+03 0.0000000000000000e+00  2.2469135421015640e+03 1.4342545082223530e+03 0.0000000000000000e+00  2.2376502012906958e+03 1.4266275132674482e+03 0.0000000000000000e+00  2.3356516732568493e+03 1.5208315650757597e+03 0.0000000000000000e+00  2.3352603642557556e+03 1.5240515892109036e+03 0.0000000000000000e+00  2.3355027455560894e+03 1.5173664144535667e+03 0.0000000000000000e+00  2.3348092605353613e+03 1.5136547129604528e+03 0.0000000000000000e+00  2.3335668993885165e+03 1.5096949349653707e+03 0.0000000000000000e+00  2.3317713446094385e+03 1.5054854529929905e+03 0.0000000000000000e+00  2.3294182794679305e+03 1.5010245370900268e+03 0.0000000000000000e+00  2.3265033874737496e+03 1.4963103541554308e+03 0.0000000000000000e+00  2.3230223518291205e+03 1.4913409672349183e+03 0.0000000000000000e+00  2.3189708548701510e+03 1.4861143347803552e+03 0.0000000000000000e+00  2.3143445774975780e+03 1.4806283098745696e+03 0.0000000000000000e+00  2.3091391985973778e+03 1.4748806394222163e+03 0.0000000000000000e+00  2.3033503944517797e+03 1.4688689633073814e+03 0.0000000000000000e+00  2.2969738381413490e+03 1.4625908135186753e+03 0.0000000000000000e+00  2.2900051989388089e+03 1.4560436132426348e+03 0.0000000000000000e+00  2.2824401416953979e+03 1.4492246759263132e+03 0.0000000000000000e+00  2.2742743262205931e+03 1.4421312043100404e+03 0.0000000000000000e+00  2.2655034066561370e+03 1.4347602894313886e+03 0.0000000000000000e+00  2.2561230308453983e+03 1.4271089096014919e+03 0.0000000000000000e+00  2.2461288396991367e+03 1.4191739293549435e+03 0.0000000000000000e+00  2.3550313672142479e+03 1.5210785657517574e+03 0.0000000000000000e+00  2.3546676357972592e+03 1.5243088345346209e+03 0.0000000000000000e+00  2.3548498330381767e+03 1.5176024419930282e+03 0.0000000000000000e+00  2.3541186898624992e+03 1.5138790456879215e+03 0.0000000000000000e+00  2.3528335969754839e+03 1.5099068585946607e+03 0.0000000000000000e+00  2.3509902158759755e+03 1.5056842612247440e+03 0.0000000000000000e+00  2.3485842097779946e+03 1.5012095322324551e+03 0.0000000000000000e+00  2.3456112431045212e+03 1.4964808477697957e+03 0.0000000000000000e+00  2.3420669809708297e+03 1.4914962808073376e+03 0.0000000000000000e+00  2.3379470886578192e+03 1.4862538004215335e+03 0.0000000000000000e+00  2.3332472310758062e+03 1.4807512710490871e+03 0.0000000000000000e+00  2.3279630722193251e+03 1.4749864517090298e+03 0.0000000000000000e+00  2.3220902746135330e+03 1.4689569951932192e+03 0.0000000000000000e+00  2.3156244987528694e+03 1.4626604472260221e+03 0.0000000000000000e+00  2.3085614025327009e+03 1.4560942455940353e+03 0.0000000000000000e+00  2.3008966406747468e+03 1.4492557192467414e+03 0.0000000000000000e+00  2.2926258641471504e+03 1.4421420873691000e+03 0.0000000000000000e+00  2.2837447195801437e+03 1.4347504584271296e+03 0.0000000000000000e+00  2.2742488486783491e+03 1.4270778291876481e+03 0.0000000000000000e+00  2.2641338876308132e+03 1.4191210837134010e+03 0.0000000000000000e+00  2.2355164665589195e+03 1.4109520983746011e+03 0.0000000000000000e+00  2.2533954665200126e+03 1.4108769923349262e+03 0.0000000000000000e+00  2.2242815365594574e+03 1.4024400503927372e+03 0.0000000000000000e+00  2.2420292087311145e+03 1.4023422106005921e+03 0.0000000000000000e+00  2.2300307303629220e+03 1.3935132782063613e+03 0.0000000000000000e+00  2.3740562338233440e+03 1.5207814357553696e+03 0.0000000000000000e+00  2.3737201351361314e+03 1.5240206317466857e+03 0.0000000000000000e+00  2.3738421248672335e+03 1.5172957564306153e+03 0.0000000000000000e+00  2.3730734429767795e+03 1.5135621835552936e+03 0.0000000000000000e+00  2.3717458264410270e+03 1.5095792068523565e+03 0.0000000000000000e+00  2.3698549166722146e+03 1.5053452154306196e+03 0.0000000000000000e+00  2.3673963577387126e+03 1.5008584971970031e+03 0.0000000000000000e+00  2.3643657958881272e+03 1.4961172382357095e+03 0.0000000000000000e+00  2.3607588790609911e+03 1.4911195221548528e+03 0.0000000000000000e+00  2.3565712563954894e+03 1.4858633294011038e+03 0.0000000000000000e+00  2.3517985777237218e+03 1.4803465365429633e+03 0.0000000000000000e+00  2.3464364930600668e+03 1.4745669155233463e+03 0.0000000000000000e+00  2.3404806520822744e+03 1.4685221328821922e+03 0.0000000000000000e+00  2.3339267036059523e+03 1.4622097489499088e+03 0.0000000000000000e+00  2.3267702950532016e+03 1.4556272170124923e+03 0.0000000000000000e+00  2.3190070719162081e+03 1.4487718824492672e+03 0.0000000000000000e+00  2.3106326772166794e+03 1.4416409818442369e+03 0.0000000000000000e+00  2.3016427509620889e+03 1.4342316420721306e+03 0.0000000000000000e+00  2.2920329295997667e+03 1.4265408793603199e+03 0.0000000000000000e+00  2.2817988454699635e+03 1.4185655983278361e+03 0.0000000000000000e+00  2.2709361262591042e+03 1.4103025910028587e+03 0.0000000000000000e+00  2.2594403944545452e+03 1.4017485358200931e+03 0.0000000000000000e+00  2.2473072668022296e+03 1.3928999965996036e+03 0.0000000000000000e+00  2.2173956396420072e+03 1.3843866179069257e+03 0.0000000000000000e+00  2.2345323537687550e+03 1.3837534215087310e+03 0.0000000000000000e+00  2.2041195363416646e+03 1.3749585344100001e+03 0.0000000000000000e+00  2.2211112590094608e+03 1.3743051420088707e+03 0.0000000000000000e+00  2.1901980112074248e+03 1.3652252132556634e+03 0.0000000000000000e+00  2.2070395788442615e+03 1.3645513717889858e+03 0.0000000000000000e+00  2.1756266453909930e+03 1.3551827196827755e+03 0.0000000000000000e+00  2.1923129017430597e+03 1.3544882056878491e+03 0.0000000000000000e+00  2.1604010098946046e+03 1.3448269974846237e+03 0.0000000000000000e+00  2.1769268078226864e+03 1.3441116186071520e+03 0.0000000000000000e+00  2.1445166650279007e+03 1.3341538678560969e+03 0.0000000000000000e+00  2.1608768683574526e+03 1.3334174644177106e+03 0.0000000000000000e+00  2.1441586453054961e+03 1.3224014748611860e+03 0.0000000000000000e+00  2.3927312151343990e+03 1.5199469739583647e+03 0.0000000000000000e+00  2.3924227815793324e+03 1.5231937864806666e+03 0.0000000000000000e+00  2.3924845849779981e+03 1.5164531492847152e+03 0.0000000000000000e+00  2.3916785048121619e+03 1.5127109101162253e+03 0.0000000000000000e+00  2.3903085928057089e+03 1.5087187546947969e+03 0.0000000000000000e+00  2.3883704711643741e+03 1.5044750813143198e+03 0.0000000000000000e+00  2.3858597656916736e+03 1.4999781877551727e+03 0.0000000000000000e+00  2.3827721053408986e+03 1.4952262706871304e+03 0.0000000000000000e+00  2.3791031217586501e+03 1.4902174250412052e+03 0.0000000000000000e+00  2.3748484488204253e+03 1.4849496433510087e+03 0.0000000000000000e+00  2.3700037221587440e+03 1.4794208150642608e+03 0.0000000000000000e+00  2.3645645786844289e+03 1.4736287258251432e+03 0.0000000000000000e+00  2.3585266561016606e+03 1.4675710567282401e+03 0.0000000000000000e+00  2.3518855924175227e+03 1.4612453835448728e+03 0.0000000000000000e+00  2.3446370254467702e+03 1.4546491759227033e+03 0.0000000000000000e+00  2.3367765923126731e+03 1.4477797965595439e+03 0.0000000000000000e+00  2.3282999289448330e+03 1.4406345003523932e+03 0.0000000000000000e+00  2.3192026695749159e+03 1.4332104335227823e+03 0.0000000000000000e+00  2.3094804462313932e+03 1.4255046327196089e+03 0.0000000000000000e+00  2.2991288882343765e+03 1.4175140241007107e+03 0.0000000000000000e+00  2.2881436216917964e+03 1.4092354223945226e+03 0.0000000000000000e+00  2.2765202689982129e+03 1.4006655299432625e+03 0.0000000000000000e+00  2.2642544483376528e+03 1.3918009357291739e+03 0.0000000000000000e+00  2.2513417731919717e+03 1.3826381143854685e+03 0.0000000000000000e+00  2.2377778518563364e+03 1.3731734251937112e+03 0.0000000000000000e+00  2.2235582869635123e+03 1.3634031110695032e+03 0.0000000000000000e+00  2.2086786750187730e+03 1.3533232975384303e+03 0.0000000000000000e+00  2.1931346059473440e+03 1.3429299917043693e+03 0.0000000000000000e+00  2.1769216626563957e+03 1.3322190812123522e+03 0.0000000000000000e+00  2.1600354206137422e+03 1.3211863332083376e+03 0.0000000000000000e+00  2.1267676908532662e+03 1.3110592584498213e+03 0.0000000000000000e+00  2.1424714474455091e+03 1.3098273932983393e+03 0.0000000000000000e+00  2.1086995469805856e+03 1.2993862993668743e+03 0.0000000000000000e+00  2.1242253025551477e+03 1.2981377845095178e+03 0.0000000000000000e+00  2.1052925367663006e+03 1.2861129062559578e+03 0.0000000000000000e+00  2.4110611672155565e+03 1.5185819580737082e+03 0.0000000000000000e+00  2.4107820904455607e+03 1.5150813903946564e+03 0.0000000000000000e+00  2.4099387725639658e+03 1.5113319866910958e+03 0.0000000000000000e+00  2.4085268124713548e+03 1.5073322542572876e+03 0.0000000000000000e+00  2.4065418140191277e+03 1.5030806011376903e+03 0.0000000000000000e+00  2.4039793855978705e+03 1.4985753355832364e+03 0.0000000000000000e+00  2.4008351397177562e+03 1.4938146654774321e+03 0.0000000000000000e+00  2.3971046925814189e+03 1.4887966977328292e+03 0.0000000000000000e+00  2.3927836636498173e+03 1.4835194376584661e+03 0.0000000000000000e+00  2.3878676752016218e+03 1.4779807882989285e+03 0.0000000000000000e+00  2.3823523518867237e+03 1.4721785497457256e+03 0.0000000000000000e+00  2.3762333202745326e+03 1.4661104184217513e+03 0.0000000000000000e+00  2.3695062083977659e+03 1.4597739863396394e+03 0.0000000000000000e+00  2.3621666452925028e+03 1.4531667403349040e+03 0.0000000000000000e+00  2.3542102605353521e+03 1.4462860612748123e+03 0.0000000000000000e+00  2.3456326837786241e+03 1.4391292232440098e+03 0.0000000000000000e+00  2.3364295442845005e+03 1.4316933927079961e+03 0.0000000000000000e+00  2.3265964704592398e+03 1.4239756276556234e+03 0.0000000000000000e+00  2.3161290893885589e+03 1.4159728767218744e+03 0.0000000000000000e+00  2.3050230263753938e+03 1.4076819782922587e+03 0.0000000000000000e+00  2.2932739044813388e+03 1.3990996595902607e+03 0.0000000000000000e+00  2.2808773440731516e+03 1.3902225357493612e+03 0.0000000000000000e+00  2.2678289623757923e+03 1.3810471088712579e+03 0.0000000000000000e+00  2.2541243730335755e+03 1.3715697670720022e+03 0.0000000000000000e+00  2.2397591856810845e+03 1.3617867835178852e+03 0.0000000000000000e+00  2.2247290055256508e+03 1.3516943154530004e+03 0.0000000000000000e+00  2.2090294329432350e+03 1.3412884032205422e+03 0.0000000000000000e+00  2.1926560630897111e+03 1.3305649692799916e+03 0.0000000000000000e+00  2.1756044855296313e+03 1.3195198172224730e+03 0.0000000000000000e+00  2.1578702838846739e+03 1.3081486307866808e+03 0.0000000000000000e+00  2.1394490355040821e+03 1.2964469728779000e+03 0.0000000000000000e+00  2.1203363111595140e+03 1.2844102845927630e+03 0.0000000000000000e+00  2.1005276747668490e+03 1.2720338842525150e+03 0.0000000000000000e+00  2.4287394323720873e+03 1.5131872279411380e+03 0.0000000000000000e+00  2.4290508610134611e+03 1.5166931446566123e+03 0.0000000000000000e+00  2.4278590566025914e+03 1.5094321524082457e+03 0.0000000000000000e+00  2.4264053141626969e+03 1.5054264349175985e+03 0.0000000000000000e+00  2.4243737913741384e+03 1.5011684938079486e+03 0.0000000000000000e+00  2.4217600800380856e+03 1.4966566483746824e+03 0.0000000000000000e+00  2.4185597770434533e+03 1.4918891183185647e+03 0.0000000000000000e+00  2.4147684839685849e+03 1.4868640231662448e+03 0.0000000000000000e+00  2.4103818066768040e+03 1.4815793816631306e+03 0.0000000000000000e+00  2.4053953549064236e+03 1.4760331111392932e+03 0.0000000000000000e+00  2.3998047418557949e+03 1.4702230268491119e+03 0.0000000000000000e+00  2.3936055837640961e+03 1.4641468412854317e+03 0.0000000000000000e+00  2.3867934994885609e+03 1.4578021634690608e+03 0.0000000000000000e+00  2.3793641100789469e+03 1.4511864982144925e+03 0.0000000000000000e+00  2.3713130383500757e+03 1.4442972453728235e+03 0.0000000000000000e+00  2.3626359084533733e+03 1.4371316990528694e+03 0.0000000000000000e+00  2.3533283454483708e+03 1.4296870468216005e+03 0.0000000000000000e+00  2.3433859748752338e+03 1.4219603688850461e+03 0.0000000000000000e+00  2.3328044223294355e+03 1.4139486372509364e+03 0.0000000000000000e+00  2.3215793130397833e+03 1.4056487148744091e+03 0.0000000000000000e+00  2.3097062714510776e+03 1.3970573547881911e+03 0.0000000000000000e+00  2.2971809208127770e+03 1.3881711992187836e+03 0.0000000000000000e+00  2.2839988827751217e+03 1.3789867786902312e+03 0.0000000000000000e+00  2.2701557769942610e+03 1.3695005111171881e+03 0.0000000000000000e+00  2.2556472207480092e+03 1.3597087008890674e+03 0.0000000000000000e+00  2.2404688285639854e+03 1.3496075379471754e+03 0.0000000000000000e+00  2.2246162118619472e+03 1.3391930968568392e+03 0.0000000000000000e+00  2.2080849786122512e+03 1.3284613358766298e+03 0.0000000000000000e+00  2.1908707330124644e+03 1.3174080960269127e+03 0.0000000000000000e+00  2.1729690751842668e+03 1.3060291001600422e+03 0.0000000000000000e+00  2.1543756008928763e+03 1.2943199520346702e+03 0.0000000000000000e+00  2.1350859012913297e+03 1.2822761353967092e+03 0.0000000000000000e+00  2.1150955626920695e+03 1.2698930130696367e+03 0.0000000000000000e+00  2.0944001663683798e+03 1.2571658260569341e+03 0.0000000000000000e+00  2.4463613167741009e+03 1.5107773884914175e+03 0.0000000000000000e+00  2.4467049832147909e+03 1.5142872691307512e+03 0.0000000000000000e+00  2.4454440813874207e+03 1.5070181242695294e+03 0.0000000000000000e+00  2.4439488398687822e+03 1.5030080033832910e+03 0.0000000000000000e+00  2.4418711618078732e+03 1.4987454549882023e+03 0.0000000000000000e+00  2.4392066232120396e+03 1.4942288099753584e+03 0.0000000000000000e+00  2.4359508061420051e+03 1.4894563004422785e+03 0.0000000000000000e+00  2.4320992983417946e+03 1.4844260591368334e+03 0.0000000000000000e+00  2.4276476928633911e+03 1.4791361188748970e+03 0.0000000000000000e+00  2.4225915876866943e+03 1.4735844119323804e+03 0.0000000000000000e+00  2.4169265853354200e+03 1.4677687694123754e+03 0.0000000000000000e+00  2.4106482924896109e+03 1.4616869205881828e+03 0.0000000000000000e+00  2.4037523195954936e+03 1.4553364922230573e+03 0.0000000000000000e+00  2.3962342804734703e+03 1.4487150078675618e+03 0.0000000000000000e+00  2.3880897919251015e+03 1.4418198871354980e+03 0.0000000000000000e+00  2.3793144733399863e+03 1.4346484449594241e+03 0.0000000000000000e+00  2.3699039463035265e+03 1.4271978908268695e+03 0.0000000000000000e+00  2.3598538342066163e+03 1.4194653279984022e+03 0.0000000000000000e+00  2.3491597618583760e+03 1.4114477527087968e+03 0.0000000000000000e+00  2.3378173551031291e+03 1.4031420533526289e+03 0.0000000000000000e+00  2.3258222404