<?xml version="1.0"?>
<VTKFile type="UnstructuredGrid"  version="0.1"  >
<UnstructuredGrid>
<Piece  NumberOfPoints="7655" NumberOfCells="14941">
<Points>
<DataArray  type="Float64"  NumberOfComponents="3"  format="ascii">74 0 0  75 0 0  75 1 0  74 1 0  76 0 0  76 1 0  77 0 0  77 1 0  78 0 0  78 1 0  79 0 0  79 1 0  80 0 0  80 1 0  81 0 0  81 1 0  82 0 0  82 1 0  83 0 0  83 1 0  84 0 0  84 1 0  85 0 0  85 1 0  86 0 0  86 1 0  87 0 0  87 1 0  88 0 0  88 1 0  89 0 0  89 1 0  90 0 0  90 1 0  91 0 0  91 1 0  92 0 0  92 1 0  93 0 0  93 1 0  94 0 0  94 1 0  95 0 0  95 1 0  96 0 0  96 1 0  97 0 0  97 1 0  98 0 0  98 1 0  99 0 0  99 1 0  100 0 0  100 1 0  101 0 0  101 1 0  102 0 0  102 1 0  103 0 0  103 1 0  104 0 0  104 1 0  105 0 0  105 1 0  106 0 0  106 1 0  107 0 0  107 1 0  108 0 0  108 1 0  109 0 0  109 1 0  110 0 0  110 1 0  111 0 0  111 1 0  112 0 0  112 1 0  113 0 0  113 1 0  114 0 0  114 1 0  115 0 0  115 1 0  116 0 0  116 1 0  117 0 0  117 1 0  118 0 0  118 1 0  119 0 0  119 1 0  120 0 0  120 1 0  121 0 0  121 1 0  122 0 0  122 1 0  123 0 0  123 1 0  124 0 0  124 1 0  125 0 0  125 1 0  126 0 0  126 1 0  127 0 0  127 1 0  128 0 0  128 1 0  129 0 0  129 1 0  130 0 0  130 1 0  131 0 0  131 1 0  132 0 0  132 1 0  133 0 0  133 1 0  134 0 0  134 1 0  135 0 0  135 1 0  136 0 0  136 1 0  137 0 0  137 1 0  138 0 0  138 1 0  139 0 0  139 1 0  140 0 0  140 1 0  141 0 0  141 1 0  142 0 0  142 1 0  143 0 0  143 1 0  144 0 0  144 1 0  145 0 0  145 1 0  146 0 0  146 1 0  147 0 0  147 1 0  148 0 0  148 1 0  149 0 0  149 1 0  150 0 0  150 1 0  151 0 0  151 1 0  152 0 0  152 1 0  153 0 0  153 1 0  154 0 0  154 1 0  155 0 0  155 1 0  156 0 0  156 1 0  157 0 0  157 1 0  158 0 0  158 1 0  159 0 0  159 1 0  160 0 0  160 1 0  161 0 0  161 1 0  162 0 0  162 1 0  163 0 0  163 1 0  164 0 0  164 1 0  165 0 0  165 1 0  166 0 0  166 1 0  167 0 0  167 1 0  168 0 0  168 1 0  169 0 0  169 1 0  170 0 0  170 1 0  171 0 0  171 1 0  172 0 0  172 1 0  173 0 0  173 1 0  174 0 0  174 1 0  175 0 0  175 1 0  176 0 0  176 1 0  177 0 0  177 1 0  178 0 0  178 1 0  179 0 0  179 1 0  180 0 0  180 1 0  181 0 0  181 1 0  182 0 0  182 1 0  183 0 0  183 1 0  184 0 0  184 1 0  185 0 0  185 1 0  186 0 0  186 1 0  187 0 0  187 1 0  188 0 0  188 1 0  189 0 0  189 1 0  190 0 0  190 1 0  191 0 0  191 1 0  192 0 0  192 1 0  193 0 0  193 1 0  194 0 0  194 1 0  195 0 0  195 1 0  196 0 0  196 1 0  75 2 0  74 2 0  76 2 0  77 2 0  78 2 0  79 2 0  80 2 0  81 2 0  82 2 0  83 2 0  84 2 0  85 2 0  86 2 0  87 2 0  88 2 0  89 2 0  90 2 0  91 2 0  92 2 0  93 2 0  94 2 0  95 2 0  96 2 0  97 2 0  98 2 0  99 2 0  100 2 0  101 2 0  102 2 0  103 2 0  104 2 0  105 2 0  106 2 0  107 2 0  108 2 0  109 2 0  110 2 0  111 2 0  112 2 0  113 2 0  114 2 0  115 2 0  116 2 0  117 2 0  118 2 0  119 2 0  120 2 0  121 2 0  122 2 0  123 2 0  124 2 0  125 2 0  126 2 0  127 2 0  128 2 0  129 2 0  130 2 0  131 2 0  132 2 0  133 2 0  134 2 0  135 2 0  136 2 0  137 2 0  138 2 0  139 2 0  140 2 0  141 2 0  142 2 0  143 2 0  144 2 0  145 2 0  146 2 0  147 2 0  148 2 0  149 2 0  150 2 0  151 2 0  152 2 0  153 2 0  154 2 0  155 2 0  156 2 0  157 2 0  158 2 0  159 2 0  160 2 0  161 2 0  162 2 0  163 2 0  164 2 0  165 2 0  166 2 0  167 2 0  168 2 0  169 2 0  170 2 0  171 2 0  172 2 0  173 2 0  174 2 0  175 2 0  176 2 0  177 2 0  178 2 0  179 2 0  180 2 0  181 2 0  182 2 0  183 2 0  184 2 0  185 2 0  186 2 0  187 2 0  188 2 0  189 2 0  190 2 0  191 2 0  192 2 0  193 2 0  194 2 0  195 2 0  196 2 0  75 3 0  74 3 0  76 3 0  77 3 0  78 3 0  79 3 0  80 3 0  81 3 0  82 3 0  83 3 0  84 3 0  85 3 0  86 3 0  87 3 0  88 3 0  89 3 0  90 3 0  91 3 0  92 3 0  93 3 0  94 3 0  95 3 0  96 3 0  97 3 0  98 3 0  99 3 0  100 3 0  101 3 0  102 3 0  103 3 0  104 3 0  105 3 0  106 3 0  107 3 0  108 3 0  109 3 0  110 3 0  111 3 0  112 3 0  113 3 0  114 3 0  115 3 0  116 3 0  117 3 0  118 3 0  119 3 0  120 3 0  121 3 0  122 3 0  123 3 0  124 3 0  125 3 0  126 3 0  127 3 0  128 3 0  129 3 0  130 3 0  131 3 0  132 3 0  133 3 0  134 3 0  135 3 0  136 3 0  137 3 0  138 3 0  139 3 0  140 3 0  141 3 0  142 3 0  143 3 0  144 3 0  145 3 0  146 3 0  147 3 0  148 3 0  149 3 0  150 3 0  151 3 0  152 3 0  153 3 0  154 3 0  155 3 0  156 3 0  157 3 0  158 3 0  159 3 0  160 3 0  161 3 0  162 3 0  163 3 0  164 3 0  165 3 0  166 3 0  167 3 0  168 3 0  169 3 0  170 3 0  171 3 0  172 3 0  173 3 0  174 3 0  175 3 0  176 3 0  177 3 0  178 3 0  179 3 0  180 3 0  181 3 0  182 3 0  183 3 0  184 3 0  185 3 0  186 3 0  187 3 0  188 3 0  189 3 0  190 3 0  191 3 0  192 3 0  193 3 0  194 3 0  195 3 0  196 3 0  75 4 0  76 4 0  77 4 0  78 4 0  79 4 0  80 4 0  81 4 0  82 4 0  83 4 0  84 4 0  85 4 0  86 4 0  87 4 0  88 4 0  89 4 0  90 4 0  91 4 0  92 4 0  93 4 0  94 4 0  95 4 0  96 4 0  97 4 0  98 4 0  99 4 0  100 4 0  101 4 0  102 4 0  103 4 0  104 4 0  105 4 0  106 4 0  107 4 0  108 4 0  109 4 0  110 4 0  111 4 0  112 4 0  113 4 0  114 4 0  115 4 0  116 4 0  117 4 0  118 4 0  119 4 0  120 4 0  121 4 0  122 4 0  123 4 0  124 4 0  125 4 0  126 4 0  127 4 0  128 4 0  129 4 0  130 4 0  131 4 0  132 4 0  133 4 0  134 4 0  135 4 0  136 4 0  137 4 0  138 4 0  139 4 0  140 4 0  141 4 0  142 4 0  143 4 0  144 4 0  145 4 0  146 4 0  147 4 0  148 4 0  149 4 0  150 4 0  151 4 0  152 4 0  153 4 0  154 4 0  155 4 0  156 4 0  157 4 0  158 4 0  159 4 0  160 4 0  161 4 0  162 4 0  163 4 0  164 4 0  165 4 0  166 4 0  167 4 0  168 4 0  169 4 0  170 4 0  171 4 0  172 4 0  173 4 0  174 4 0  175 4 0  176 4 0  177 4 0  178 4 0  179 4 0  180 4 0  181 4 0  182 4 0  183 4 0  184 4 0  185 4 0  186 4 0  187 4 0  188 4 0  189 4 0  190 4 0  191 4 0  192 4 0  193 4 0  194 4 0  195 4 0  196 4 0  76 5 0  77 5 0  78 5 0  79 5 0  80 5 0  81 5 0  82 5 0  83 5 0  84 5 0  85 5 0  86 5 0  87 5 0  88 5 0  89 5 0  90 5 0  91 5 0  92 5 0  93 5 0  94 5 0  95 5 0  96 5 0  97 5 0  98 5 0  99 5 0  100 5 0  101 5 0  102 5 0  103 5 0  104 5 0  105 5 0  106 5 0  107 5 0  108 5 0  109 5 0  110 5 0  111 5 0  112 5 0  113 5 0  114 5 0  115 5 0  116 5 0  117 5 0  118 5 0  119 5 0  120 5 0  121 5 0  122 5 0  123 5 0  124 5 0  125 5 0  126 5 0  127 5 0  128 5 0  129 5 0  130 5 0  131 5 0  132 5 0  133 5 0  134 5 0  135 5 0  136 5 0  137 5 0  138 5 0  139 5 0  140 5 0  141 5 0  142 5 0  143 5 0  144 5 0  145 5 0  146 5 0  147 5 0  148 5 0  149 5 0  150 5 0  151 5 0  152 5 0  153 5 0  154 5 0  155 5 0  156 5 0  157 5 0  158 5 0  159 5 0  160 5 0  161 5 0  162 5 0  163 5 0  164 5 0  165 5 0  166 5 0  167 5 0  168 5 0  169 5 0  170 5 0  171 5 0  172 5 0  173 5 0  174 5 0  175 5 0  176 5 0  177 5 0  178 5 0  179 5 0  180 5 0  181 5 0  182 5 0  183 5 0  184 5 0  185 5 0  186 5 0  187 5 0  188 5 0  189 5 0  190 5 0  191 5 0  192 5 0  193 5 0  194 5 0  195 5 0  196 5 0  77 6 0  78 6 0  79 6 0  80 6 0  81 6 0  82 6 0  83 6 0  84 6 0  85 6 0  86 6 0  87 6 0  88 6 0  89 6 0  90 6 0  91 6 0  92 6 0  93 6 0  94 6 0  95 6 0  96 6 0  97 6 0  98 6 0  99 6 0  100 6 0  101 6 0  102 6 0  103 6 0  104 6 0  105 6 0  106 6 0  107 6 0  108 6 0  109 6 0  110 6 0  111 6 0  112 6 0  113 6 0  114 6 0  115 6 0  116 6 0  117 6 0  118 6 0  119 6 0  120 6 0  121 6 0  122 6 0  123 6 0  124 6 0  125 6 0  126 6 0  127 6 0  128 6 0  129 6 0  130 6 0  131 6 0  132 6 0  133 6 0  134 6 0  135 6 0  136 6 0  137 6 0  138 6 0  139 6 0  140 6 0  141 6 0  142 6 0  143 6 0  144 6 0  145 6 0  146 6 0  147 6 0  148 6 0  149 6 0  150 6 0  151 6 0  152 6 0  153 6 0  154 6 0  155 6 0  156 6 0  157 6 0  158 6 0  159 6 0  160 6 0  161 6 0  162 6 0  163 6 0  164 6 0  165 6 0  166 6 0  167 6 0  168 6 0  169 6 0  170 6 0  171 6 0  172 6 0  173 6 0  174 6 0  175 6 0  176 6 0  177 6 0  178 6 0  179 6 0  180 6 0  181 6 0  182 6 0  183 6 0  184 6 0  185 6 0  186 6 0  187 6 0  188 6 0  189 6 0  190 6 0  191 6 0  192 6 0  193 6 0  194 6 0  195 6 0  196 6 0  78 7 0  77 7 0  79 7 0  80 7 0  81 7 0  82 7 0  83 7 0  84 7 0  85 7 0  86 7 0  87 7 0  88 7 0  89 7 0  90 7 0  91 7 0  92 7 0  93 7 0  94 7 0  95 7 0  96 7 0  97 7 0  98 7 0  99 7 0  100 7 0  101 7 0  102 7 0  103 7 0  104 7 0  105 7 0  106 7 0  107 7 0  108 7 0  109 7 0  110 7 0  111 7 0  112 7 0  113 7 0  114 7 0  115 7 0  116 7 0  117 7 0  118 7 0  119 7 0  120 7 0  121 7 0  122 7 0  123 7 0  124 7 0  125 7 0  126 7 0  127 7 0  128 7 0  129 7 0  130 7 0  131 7 0  132 7 0  133 7 0  134 7 0  135 7 0  136 7 0  137 7 0  138 7 0  139 7 0  140 7 0  141 7 0  142 7 0  143 7 0  144 7 0  145 7 0  146 7 0  147 7 0  148 7 0  149 7 0  150 7 0  151 7 0  152 7 0  153 7 0  154 7 0  155 7 0  156 7 0  157 7 0  158 7 0  159 7 0  160 7 0  161 7 0  162 7 0  163 7 0  164 7 0  165 7 0  166 7 0  167 7 0  168 7 0  169 7 0  170 7 0  171 7 0  172 7 0  173 7 0  174 7 0  175 7 0  176 7 0  177 7 0  178 7 0  179 7 0  180 7 0  181 7 0  182 7 0  183 7 0  184 7 0  185 7 0  186 7 0  187 7 0  188 7 0  189 7 0  190 7 0  191 7 0  192 7 0  193 7 0  194 7 0  195 7 0  196 7 0  78 8 0  77 8 0  79 8 0  80 8 0  81 8 0  82 8 0  83 8 0  84 8 0  85 8 0  86 8 0  87 8 0  88 8 0  89 8 0  90 8 0  91 8 0  92 8 0  93 8 0  94 8 0  95 8 0  96 8 0  97 8 0  98 8 0  99 8 0  100 8 0  101 8 0  102 8 0  103 8 0  104 8 0  105 8 0  106 8 0  107 8 0  108 8 0  109 8 0  110 8 0  111 8 0  112 8 0  113 8 0  114 8 0  115 8 0  116 8 0  117 8 0  118 8 0  119 8 0  120 8 0  121 8 0  122 8 0  123 8 0  124 8 0  125 8 0  126 8 0  127 8 0  128 8 0  129 8 0  130 8 0  131 8 0  132 8 0  133 8 0  134 8 0  135 8 0  136 8 0  137 8 0  138 8 0  139 8 0  140 8 0  141 8 0  142 8 0  143 8 0  144 8 0  145 8 0  146 8 0  147 8 0  148 8 0  149 8 0  150 8 0  151 8 0  152 8 0  153 8 0  154 8 0  155 8 0  156 8 0  157 8 0  158 8 0  159 8 0  160 8 0  161 8 0  162 8 0  163 8 0  164 8 0  165 8 0  166 8 0  167 8 0  168 8 0  169 8 0  170 8 0  171 8 0  172 8 0  173 8 0  174 8 0  175 8 0  176 8 0  177 8 0  178 8 0  179 8 0  180 8 0  181 8 0  182 8 0  183 8 0  184 8 0  185 8 0  186 8 0  187 8 0  188 8 0  189 8 0  190 8 0  191 8 0  192 8 0  193 8 0  194 8 0  195 8 0  196 8 0  78 9 0  77 9 0  79 9 0  80 9 0  81 9 0  82 9 0  83 9 0  84 9 0  85 9 0  86 9 0  87 9 0  88 9 0  89 9 0  90 9 0  91 9 0  92 9 0  93 9 0  94 9 0  95
[...]
<PointData  Vectors="f_85"> 
<DataArray  type="Float64"  Name="f_85"  NumberOfComponents="3" format="ascii">0.0000000000000000e+00 0.0000000000000000e+00 0.0000000000000000e+00  0.0000000000000000e+00 0.0000000000000000e+00 0.0000000000000000e+00  4.7752179067292857e+01 4.9807927174610725e+01 0.0000000000000000e+00  4.7311214195277955e+01 4.9675089251717949e+01 0.0000000000000000e+00  0.0000000000000000e+00 0.0000000000000000e+00 0.0000000000000000e+00  4.8185273639306736e+01 4.9934546754557708e+01 0.0000000000000000e+00  0.0000000000000000e+00 0.0000000000000000e+00 0.0000000000000000e+00  4.8610399569306452e+01 5.0055024701272266e+01 0.0000000000000000e+00  0.0000000000000000e+00 0.0000000000000000e+00 0.0000000000000000e+00  4.9027458647296541e+01 5.0169433639828611e+01 0.0000000000000000e+00  0.0000000000000000e+00 0.0000000000000000e+00 0.0000000000000000e+00  4.9436352786821153e+01 5.0277842210938566e+01 0.0000000000000000e+00  0.0000000000000000e+00 0.0000000000000000e+00 0.0000000000000000e+00  4.9836984015898587e+01 5.0380315164533279e+01 0.0000000000000000e+00  0.0000000000000000e+00 0.0000000000000000e+00 0.0000000000000000e+00  5.0229254467344063e+01 5.0476913446984909e+01 0.0000000000000000e+00  0.0000000000000000e+00 0.0000000000000000e+00 0.0000000000000000e+00  5.0613066368454334e+01 5.0567694282274310e+01 0.0000000000000000e+00  0.0000000000000000e+00 0.0000000000000000e+00 0.0000000000000000e+00  5.0988322030027092e+01 5.0652711247385298e+01 0.0000000000000000e+00  0.0000000000000000e+00 0.0000000000000000e+00 0.0000000000000000e+00  5.1354923834686211e+01 5.0732014342181650e+01 0.0000000000000000e+00  0.0000000000000000e+00 0.0000000000000000e+00 0.0000000000000000e+00  5.1712774224482580e+01 5.0805650054000843e+01 0.0000000000000000e+00  0.0000000000000000e+00 0.0000000000000000e+00 0.0000000000000000e+00  5.2061775687738688e+01 5.0873661417177686e+01 0.0000000000000000e+00  0.0000000000000000e+00 0.0000000000000000e+00 0.0000000000000000e+00  5.2401830745103091e+01 5.0936088067691408e+01 0.0000000000000000e+00  0.0000000000000000e+00 0.0000000000000000e+00 0.0000000000000000e+00  5.2732841934779508e+01 5.0992966293112183e+01 0.0000000000000000e+00  0.0000000000000000e+00 0.0000000000000000e+00 0.0000000000000000e+00  5.3054711796893002e+01 5.1044329078005497e+01 0.0000000000000000e+00  0.0000000000000000e+00 0.0000000000000000e+00 0.0000000000000000e+00  5.3367342856953570e+01 5.1090206144937149e+01 0.0000000000000000e+00  0.0000000000000000e+00 0.0000000000000000e+00 0.0000000000000000e+00  5.3670637608375543e+01 5.1130623991206335e+01 0.0000000000000000e+00  0.0000000000000000e+00 0.0000000000000000e+00 0.0000000000000000e+00  5.3964498494008652e+01 5.1165605921420209e+01 0.0000000000000000e+00  0.0000000000000000e+00 0.0000000000000000e+00 0.0000000000000000e+00  5.4248827886633840e+01 5.1195172076009172e+01 0.0000000000000000e+00  0.0000000000000000e+00 0.0000000000000000e+00 0.0000000000000000e+00  5.4523528068374596e+01 5.1219339455769756e+01 0.0000000000000000e+00  0.0000000000000000e+00 0.0000000000000000e+00 0.0000000000000000e+00  5.4788501208971404e+01 5.1238121942508982e+01 0.0000000000000000e+00  0.0000000000000000e+00 0.0000000000000000e+00 0.0000000000000000e+00  5.5043649342863922e+01 5.1251530315851959e+01 0.0000000000000000e+00  0.0000000000000000e+00 0.0000000000000000e+00 0.0000000000000000e+00  5.5288874345021952e+01 5.1259572266263071e+01 0.0000000000000000e+00  0.0000000000000000e+00 0.0000000000000000e+00 0.0000000000000000e+00  5.5524077905463045e+01 5.1262252404319234e+01 0.0000000000000000e+00  0.0000000000000000e+00 0.0000000000000000e+00 0.0000000000000000e+00  5.5749161502390500e+01 5.1259572266263056e+01 0.0000000000000000e+00  0.0000000000000000e+00 0.0000000000000000e+00 0.0000000000000000e+00  5.5964026373881282e+01 5.1251530315851937e+01 0.0000000000000000e+00  0.0000000000000000e+00 0.0000000000000000e+00 0.0000000000000000e+00  5.6168573488049546e+01 5.1238121942508933e+01 0.0000000000000000e+00  0.0000000000000000e+00 0.0000000000000000e+00 0.0000000000000000e+00  5.6362703511605886e+01 5.1219339455769713e+01 0.0000000000000000e+00  0.0000000000000000e+00 0.0000000000000000e+00 0.0000000000000000e+00  5.6546316776728155e+01 5.1195172076009129e+01 0.0000000000000000e+00  0.0000000000000000e+00 0.0000000000000000e+00 0.0000000000000000e+00  5.6719313246153504e+01 5.1165605921420180e+01 0.0000000000000000e+00  0.0000000000000000e+00 0.0000000000000000e+00 0.0000000000000000e+00  5.6881592476396087e+01 5.1130623991206299e+01 0.0000000000000000e+00  0.0000000000000000e+00 0.0000000000000000e+00 0.0000000000000000e+00  5.7033053578987662e+01 5.1090206144937078e+01 0.0000000000000000e+00  0.0000000000000000e+00 0.0000000000000000e+00 0.0000000000000000e+00  5.7173595179632422e+01 5.1044329078005411e+01 0.0000000000000000e+00  0.0000000000000000e+00 0.0000000000000000e+00 0.0000000000000000e+00  5.7303115375159216e+01 5.0992966293112097e+01 0.0000000000000000e+00  0.0000000000000000e+00 0.0000000000000000e+00 0.0000000000000000e+00  5.7421511688146609e+01 5.0936088067691315e+01 0.0000000000000000e+00  0.0000000000000000e+00 0.0000000000000000e+00 0.0000000000000000e+00  5.7528681019087692e+01 5.0873661417177594e+01 0.0000000000000000e+00  0.0000000000000000e+00 0.0000000000000000e+00 0.0000000000000000e+00  5.7624519595951966e+01 5.0805650054000736e+01 0.0000000000000000e+00  0.0000000000000000e+00 0.0000000000000000e+00 0.0000000000000000e+00  5.7708922920991675e+01 5.0732014342181522e+01 0.0000000000000000e+00  0.0000000000000000e+00 0.0000000000000000e+00 0.0000000000000000e+00  5.7781785714628867e+01 5.0652711247385156e+01 0.0000000000000000e+00  0.0000000000000000e+00 0.0000000000000000e+00 0.0000000000000000e+00  5.7843001856247454e+01 5.0567694282274175e+01 0.0000000000000000e+00  0.0000000000000000e+00 0.0000000000000000e+00 0.0000000000000000e+00  5.7892464321701908e+01 5.0476913446984781e+01 0.0000000000000000e+00  0.0000000000000000e+00 0.0000000000000000e+00 0.0000000000000000e+00  5.7930065117339822e+01 5.0380315164533172e+01 0.0000000000000000e+00  0.0000000000000000e+00 0.0000000000000000e+00 0.0000000000000000e+00  5.7955695210320449e+01 5.0277842210938459e+01 0.0000000000000000e+00  0.0000000000000000e+00 0.0000000000000000e+00 0.0000000000000000e+00  5.7969244454994552e+01 5.0169433639828526e+01 0.0000000000000000e+00  0.0000000000000000e+00 0.0000000000000000e+00 0.0000000000000000e+00  5.7970601515092802e+01 5.0055024701272181e+01 0.0000000000000000e+00  0.0000000000000000e+00 0.0000000000000000e+00 0.0000000000000000e+00  5.7959653781449944e+01 4.9934546754557651e+01 0.0000000000000000e+00  0.0000000000000000e+00 0.0000000000000000e+00 0.0000000000000000e+00  5.7936287284970639e+01 4.9807927174610683e+01 0.0000000000000000e+00  0.0000000000000000e+00 0.0000000000000000e+00 0.0000000000000000e+00  5.7900386604518630e+01 4.9675089251717914e+01 0.0000000000000000e+00  0.0000000000000000e+00 0.0000000000000000e+00 0.0000000000000000e+00  5.7851834769385228e+01 4.9535952084189958e+01 0.0000000000000000e+00  0.0000000000000000e+00 0.0000000000000000e+00 0.0000000000000000e+00  5.7790513155964931e+01 4.9390430463565757e+01 0.0000000000000000e+00  0.0000000000000000e+00 0.0000000000000000e+00 0.0000000000000000e+00  5.7716301378233680e+01 4.9238434751923201e+01 0.0000000000000000e+00  0.0000000000000000e+00 0.0000000000000000e+00 0.0000000000000000e+00  5.7629077171592336e+01 4.9079870750821328e+01 0.0000000000000000e+00  0.0000000000000000e+00 0.0000000000000000e+00 0.0000000000000000e+00  5.7528716269598775e+01 4.8914639561355592e+01 0.0000000000000000e+00  0.0000000000000000e+00 0.0000000000000000e+00 0.0000000000000000e+00  5.7415092273071160e+01 4.8742637434760724e+01 0.0000000000000000e+00  0.0000000000000000e+00 0.0000000000000000e+00 0.0000000000000000e+00  5.7288076510998714e+01 4.8563755612942373e+01 0.0000000000000000e+00  0.0000000000000000e+00 0.0000000000000000e+00 0.0000000000000000e+00  5.7147537892645403e+01 4.8377880158261782e+01 0.0000000000000000e+00  0.0000000000000000e+00 0.0000000000000000e+00 0.0000000000000000e+00  5.6993342750175771e+01 4.8184891771833406e+01 0.0000000000000000e+00  0.0000000000000000e+00 0.0000000000000000e+00 0.0000000000000000e+00  5.6825354671069995e+01 4.7984665599525663e+01 0.0000000000000000e+00  0.0000000000000000e+00 0.0000000000000000e+00 0.0000000000000000e+00  5.6643434319525511e+01 4.7777071024776745e+01 0.0000000000000000e+00  0.0000000000000000e+00 0.0000000000000000e+00 0.0000000000000000e+00  5.6447439245966692e+01 4.7561971447251111e+01 0.0000000000000000e+00  0.0000000000000000e+00 0.0000000000000000e+00 0.0000000000000000e+00  5.6237223683697167e+01 4.7339224046266700e+01 0.0000000000000000e+00  0.0000000000000000e+00 0.0000000000000000e+00 0.0000000000000000e+00  5.6012638331634960e+01 4.7108679527815731e+01 0.0000000000000000e+00  0.0000000000000000e+00 0.0000000000000000e+00 0.0000000000000000e+00  5.5773530121963610e+01 4.6870181853883174e+01 0.0000000000000000e+00  0.0000000000000000e+00 0.0000000000000000e+00 0.0000000000000000e+00  5.5519741971412685e+01 4.6623567952634033e+01 0.0000000000000000e+00  0.0000000000000000e+00 0.0000000000000000e+00 0.0000000000000000e+00  5.5251112514747938e+01 4.6368667407891579e+01 0.0000000000000000e+00  0.0000000000000000e+00 0.0000000000000000e+00 0.0000000000000000e+00  5.4967475818900738e+01 4.6105302126161604e+01 0.0000000000000000e+00  0.0000000000000000e+00 0.0000000000000000e+00 0.0000000000000000e+00  5.4668661075997122e+01 4.5833285979270741e+01 0.0000000000000000e+00  0.0000000000000000e+00 0.0000000000000000e+00 0.0000000000000000e+00  5.4354492273356321e+01 4.5552424420474402e+01 0.0000000000000000e+00  0.0000000000000000e+00 0.0000000000000000e+00 0.0000000000000000e+00  5.4024787838312889e+01 4.5262514071652483e+01 0.0000000000000000e+00  0.0000000000000000e+00 0.0000000000000000e+00 0.0000000000000000e+00  5.3679360255472453e+01 4.4963342278940402e+01 0.0000000000000000e+00  0.0000000000000000e+00 0.0000000000000000e+00 0.0000000000000000e+00  5.3318015653733923e+01 4.4654686633836967e+01 0.0000000000000000e+00  0.0000000000000000e+00 0.0000000000000000e+00 0.0000000000000000e+00  5.2940553360096366e+01 4.4336314456483450e+01 0.0000000000000000e+00  0.0000000000000000e+00 0.0000000000000000e+00 0.0000000000000000e+00  5.2546765416907853e+01 4.4007982237410999e+01 0.0000000000000000e+00  0.0000000000000000e+00 0.0000000000000000e+00 0.0000000000000000e+00  5.2136436058804513e+01 4.3669435033601602e+01 0.0000000000000000e+00  0.0000000000000000e+00 0.0000000000000000e+00 0.0000000000000000e+00  5.1709341145115452e+01 4.3320405814189208e+01 0.0000000000000000e+00  0.0000000000000000e+00 0.0000000000000000e+00 0.0000000000000000e+00  5.1265247542968062e+01 4.2960614750532017e+01 0.0000000000000000e+00  0.0000000000000000e+00 0.0000000000000000e+00 0.0000000000000000e+00  5.0803912455704960e+01 4.2589768444701768e+01 0.0000000000000000e+00  0.0000000000000000e+00 0.0000000000000000e+00 0.0000000000000000e+00  5.0325082690501894e+01 4.2207559089643560e+01 0.0000000000000000e+00  0.0000000000000000e+00 0.0000000000000000e+00 0.0000000000000000e+00  4.9828493858239469e+01 4.1813663553342238e+01 0.0000000000000000e+00  0.0000000000000000e+00 0.0000000000000000e+00 0.0000000000000000e+00  4.9313869497709433e+01 4.1407742378265084e+01 0.0000000000000000e+00  0.0000000000000000e+00 0.0000000000000000e+00 0.0000000000000000e+00  4.8780920115100628e+01 4.0989438686106205e+01 0.0000000000000000e+00  0.0000000000000000e+00 0.0000000000000000e+00 0.0000000000000000e+00  4.8229342128380381e+01 4.0558376976402982e+01 0.0000000000000000e+00  0.0000000000000000e+00 0.0000000000000000e+00 0.0000000000000000e+00  4.7658816704624897e+01 4.0114161805884393e+01 0.0000000000000000e+00  0.0000000000000000e+00 0.0000000000000000e+00 0.0000000000000000e+00  4.7069008476508422e+01 3.9656376333395457e+01 0.0000000000000000e+00  0.0000000000000000e+00 0.0000000000000000e+00 0.0000000000000000e+00  4.6459564121977735e+01 3.9184580712854803e+01 0.0000000000000000e+00  0.0000000000000000e+00 0.0000000000000000e+00 0.0000000000000000e+00  4.5830110788540836e+01 3.8698310313865306e+01 0.0000000000000000e+00  0.0000000000000000e+00 0.0000000000000000e+00 0.0000000000000000e+00  4.5180254340495871e+01 3.8197073746209348e+01 0.0000000000000000e+00  0.0000000000000000e+00 0.0000000000000000e+00 0.0000000000000000e+00  4.4509577403701535e+01 3.7680350660395291e+01 0.0000000000000000e+00  0.0000000000000000e+00 0.0000000000000000e+00 0.0000000000000000e+00  4.3817637177997128e+01 3.7147589291522202e+01 0.0000000000000000e+00  0.0000000000000000e+00 0.0000000000000000e+00 0.0000000000000000e+00  4.3103962981934572e+01 3.6598203707790944e+01 0.0000000000000000e+00  0.0000000000000000e+00 0.0000000000000000e+00 0.0000000000000000e+00  4.2368053487843476e+01 3.6031570717755230e+01 0.0000000000000000e+00  0.0000000000000000e+00 0.0000000000000000e+00 0.0000000000000000e+00  4.1609373597110917e+01 3.5447026381539281e+01 0.0000000000000000e+00  0.0000000000000000e+00 0.0000000000000000e+00 0.0000000000000000e+00  4.0827350895514051e+01 3.4843862060315956e+01 0.0000000000000000e+00  0.0000000000000000e+00 0.0000000000000000e+00 0.0000000000000000e+00  4.0021371615975099e+01 3.4221319924770519e+01 0.0000000000000000e+00  0.0000000000000000e+00 0.0000000000000000e+00 0.0000000000000000e+00  3.9190776020519444e+01 3.3578587826318774e+01 0.0000000000000000e+00  0.0000000000000000e+00 0.0000000000000000e+00 0.0000000000000000e+00  3.8334853093582687e+01 3.2914793413500078e+01 0.0000000000000000e+00  0.0000000000000000e+00 0.0000000000000000e+00 0.0000000000000000e+00  3.7452834413889093e+01 3.2228997348877229e+01 0.0000000000000000e+00  0.0000000000000000e+00 0.0000000000000000e+00 0.0000000000000000e+00  3.6543887040214912e+01 3.1520185447108148e+01 0.0000000000000000e+00  0.0000000000000000e+00 0.0000000000000000e+00 0.0000000000000000e+00  3.5607105205130573e+01 3.0787259510088802e+01 0.0000000000000000e+00  0.0000000000000000e+00 0.0000000000000000e+00 0.0000000000000000e+00  3.4641500557043202e+01 3.0029026576687524e+01 0.0000000000000000e+00  0.0000000000000000e+00 0.0000000000000000e+00 0.0000000000000000e+00  3.3645990619972338e+01 2.9244186227657586e+01 0.0000000000000000e+00  0.0000000000000000e+00 0.0000000000000000e+00 0.0000000000000000e+00  3.2619385045965799e+01 2.8431315483759928e+01 0.0000000000000000e+00  0.0000000000000000e+00 0.0000000000000000e+00 0.0000000000000000e+00  3.1560369107444807e+01 2.7588850696715578e+01 0.0000000000000000e+00  0.0000000000000000e+00 0.0000000000000000e+00 0.0000000000000000e+00  3.0467483702129236e+01 2.6715065643253045e+01 0.0000000000000000e+00  0.0000000000000000e+00 0.0000000000000000e+00 0.0000000000000000e+00  2.9339100900643796e+01 2.5808044769602734e+01 0.0000000000000000e+00  0.0000000000000000e+00 0.0000000000000000e+00 0.0000000000000000e+00  2.8173393724506145e+01 2.4865650162746931e+01 0.0000000000000000e+00  0.0000000000000000e+00 0.0000000000000000e+00 0.0000000000000000e+00  2.6968298350066359e+01 2.3885480291569525e+01 0.0000000000000000e+00  0.0000000000000000e+00 0.0000000000000000e+00 0.0000000000000000e+00  2.5721466212341408e+01 2.2864817779451286e+01 0.0000000000000000e+00  0.0000000000000000e+00 0.0000000000000000e+00 0.0000000000000000e+00  2.4430202400646301e+01 2.1800562298159580e+01 0.0000000000000000e+00  0.0000000000000000e+00 0.0000000000000000e+00 0.0000000000000000e+00  2.3091385074173552e+01 2.0689142871674818e+01 0.0000000000000000e+00  0.0000000000000000e+00 0.0000000000000000e+00 0.0000000000000000e+00  2.1701357993638908e+01 1.9526401029694043e+01 0.0000000000000000e+00  0.0000000000000000e+00 0.0000000000000000e+00 0.0000000000000000e+00  2.0255783963770384e+01 1.8307431595696006e+01 0.0000000000000000e+00  0.0000000000000000e+00 0.0000000000000000e+00 0.0000000000000000e+00  1.8749439684190865e+01 1.7026359998900787e+01 0.0000000000000000e+00  0.0000000000000000e+00 0.0000000000000000e+00 0.0000000000000000e+00  1.7175919577185230e+01 1.5676021012610356e+01 0.0000000000000000e+00  0.0000000000000000e+00 0.0000000000000000e+00 0.0000000000000000e+00  1.5527192059951478e+01 1.4247477752660268e+01 0.0000000000000000e+00  0.0000000000000000e+00 0.0000000000000000e+00 0.0000000000000000e+00  1.3792904039119001e+01 1.2729268193019262e+01 0.0000000000000000e+00  0.0000000000000000e+00 0.0000000000000000e+00 0.0000000000000000e+00  1.1959228188941953e+01 1.1106157003020215e+01 0.0000000000000000e+00  0.0000000000000000e+00 0.0000000000000000e+00 0.0000000000000000e+00  1.0006814568163833e+01 9.3569185705871671e+00 0.0000000000000000e+00  0.0000000000000000e+00 0.0000000000000000e+00 0.0000000000000000e+00  7.9068202289786074e+00 7.4500414581739269e+00 0.0000000000000000e+00  0.0000000000000000e+00 0.0000000000000000e+00 0.0000000000000000e+00  5.6123529268743724e+00 5.3344742087391213e+00 0.0000000000000000e+00  0.0000000000000000e+00 0.0000000000000000e+00 0.0000000000000000e+00  3.0376217455569234e+00 2.9170804636778382e+00 0.0000000000000000e+00  0.0000000000000000e+00 0.0000000000000000e+00 0.0000000000000000e+00  0.0000000000000000e+00 0.0000000000000000e+00 0.0000000000000000e+00  9.4830595354867498e+01 9.8622131024639472e+01 0.0000000000000000e+00  9.3955917916030870e+01 9.8356536080543307e+01 0.0000000000000000e+00  9.5689600216509973e+01 9.8875293474820054e+01 0.0000000000000000e+00  9.6532736553102779e+01 9.9116176743174933e+01 0.0000000000000000e+00  9.7359808674500442e+01 9.9344925979575848e+01 0.0000000000000000e+00  9.8170621131262720e+01 9.9561678371864559e+01 0.0000000000000000e+00  9.8964978696477118e+01 9.9766563332681841e+01 0.0000000000000000e+00  9.9742686346359505e+01 9.9959702673604255e+01 0.0000000000000000e+00  1.0050354923958088e+02 1.0014121076719925e+02 0.0000000000000000e+00  1.0124737269526545e+02 1.0031119469755745e+02 0.0000000000000000e+00  1.0197396216960291e+02 1.0046975439981266e+02 0.0000000000000000e+00  1.0268312323101432e+02 1.0061698278911631e+02 0.0000000000000000e+00  1.0337466153380744e+02 1.0075296587949070e+02 0.0000000000000000e+00  1.0404838279025522e+02 1.0087778289294796e+02 0.0000000000000000e+00  1.0470409274102558e+02 1.0099150635922402e+02 0.0000000000000000e+00  1.0534159712388843e+02 1.0109420220644488e+02 0.0000000000000000e+00  1.0596070164062070e+02 1.0118592984300899e+02 0.0000000000000000e+00  1.0656121192202588e+02 1.0126674223094025e+02 0.0000000000000000e+00  1.0714293349098024e+02 1.0133668595093758e+02 0.0000000000000000e+00  1.0770567172341222e+02 1.0139580125931894e+02 0.0000000000000000e+00  1.0824923180711642e+02 1.0144412213703308e+02 0.0000000000000000e+00  1.0877341869829768e+02 1.0148167633088640e+02 0.0000000000000000e+00  1.0927803707573497e+02 1.0150848538710801e+02 0.0000000000000000e+00  1.0976289129244704e+02 1.0152456467735331e+02 0.0000000000000000e+00  1.1022778532473610e+02 1.0152992341722305e+02 0.0000000000000000e+00  1.1067252271847705e+02 1.0152456467735328e+02 0.0000000000000000e+00  1.1109690653251202e+02 1.0150848538710795e+02 0.0000000000000000e+00  1.1150073927900149e+02 1.0148167633088633e+02 0.0000000000000000e+00  1.1188382286057296e+02 1.0144412213703299e+02 0.0000000000000000e+00  1.1224595850409899e+02 1.0139580125931883e+02 0.0000000000000000e+00  1.1258694669092436e+02 1.0133668595093749e+02 0.0000000000000000e+00  1.1290658708335194e+02 1.0126674223094015e+02 0.0000000000000000e+00  1.1320467844718192e+02 1.0118592984300882e+02 0.0000000000000000e+00  1.1348101857008795e+02 1.0109420220644469e+02 0.0000000000000000e+00  1.1373540417559678e+02 1.0099150635922385e+02 0.0000000000000000e+00  1.1396763083242301e+02 1.0087778289294778e+02 0.0000000000000000e+00  1.1417749285889394e+02 1.0075296587949050e+02 0.0000000000000000e+00  1.1436478322217923e+02 1.0061698278911605e+02 0.0000000000000000e+00  1.1452929343